
                                 *****************
                                 * O   R   C   A *
                                 *****************

                                            #,                                       
                                            ###                                      
                                            ####                                     
                                            #####                                    
                                            ######                                   
                                           ########,                                 
                                     ,,################,,,,,                         
                               ,,#################################,,                 
                          ,,##########################################,,             
                       ,#########################################, ''#####,          
                    ,#############################################,,   '####,        
                  ,##################################################,,,,####,       
                ,###########''''           ''''###############################       
              ,#####''   ,,,,##########,,,,          '''####'''          '####       
            ,##' ,,,,###########################,,,                        '##       
           ' ,,###''''                  '''############,,,                           
         ,,##''                                '''############,,,,        ,,,,,,###''
      ,#''                                            '''#######################'''  
     '                                                          ''''####''''         
             ,#######,   #######,   ,#######,      ##                                
            ,#'     '#,  ##    ##  ,#'     '#,    #''#        ,####,    ,#,          
            ##       ##  ##   ,#'  ##            #'  '#       #'       ,# #          
            ##       ##  #######   ##           ,######,      #####,      #          
            '#,     ,#'  ##    ##  '#,     ,#' ,#      #,     #,   #      #          
             '#######'   ##     ##  '#######'  #'      '#     '####' #    #          



                #########################################################
                #                        -***-                          #
                #          Department of theory and spectroscopy        #
                #                                                       #
                #                      Frank Neese                      #
                #                                                       #
                #     Directorship, Architecture, Infrastructure        #
                #                    SHARK, DRIVERS                     #
                #        Core code/Algorithms in most modules           #
                #                                                       #
                #        Max Planck Institute fuer Kohlenforschung      #
                #                Kaiser Wilhelm Platz 1                 #
                #                 D-45470 Muelheim/Ruhr                 #
                #                      Germany                          #
                #                                                       #
                #                  All rights reserved                  #
                #                        -***-                          #
                #########################################################


                         Program Version 6.1.1  -  RELEASE   -
                                (GIT: $487d211c$)
                          ($2025-11-21 10:33:24 +0100$)


 With contributions from (in alphabetic order):
[Max-Planck-Institut fuer Kohlenforschung]                               
  Daniel Aravena         : Magnetic Suceptibility                        
  Michael Atanasov       : Ab Initio Ligand Field Theory (pilot matlab implementation)
  Alexander A. Auer      : GIAO ZORA, VPT2 properties, NMR spectrum      
  Ute Becker             : All parallelization in ORCA, NUMFREQ, NUMCALC 
  Giovanni Bistoni       : ED, misc. LED, open-shell LED, HFLD           
  Dmytro Bykov           : pre 5.0 version of the SCF Hessian            
  Marcos Casanova-Páez   : Triplet and SCS-CIS(D). UHF-(DLPNO)-IP/EA/STEOM-CCSD. UHF-CVS-IP/STEOM-CCSD   
  Vijay G. Chilkuri      : MRCI spin determinant printing, contributions to CSF-ICE 
  Pauline Colinet        : FMM embedding                                 
  Dipayan Datta          : RHF DLPNO-CCSD density                        
  Achintya Kumar Dutta   : EOM-CC, STEOM-CC                              
  Nicolas Foglia         : Exact transition moments, OPA infrastructure, MCD improvements    
  Dmitry Ganyushin       : Spin-Orbit,Spin-Spin,Magnetic field MRCI      
  Miquel Garcia-Rates    : C-PCM and meta-GGA Hessian, CCSD/C-PCM, Gaussian charge scheme 
  Tiago L. C. Gouveia    : GS-ROHF, GS-ROCIS                             
  Yang Guo               : DLPNO-NEVPT2, F12-NEVPT2, CIM, IAO-localization        
  Andreas Hansen         : Spin unrestricted coupled pair/coupled cluster methods 
  Ingolf Harden          : AUTO-CI MPn and infrastructure                
  Benjamin Helmich-Paris : MC-RPA, TRAH-(SCF,CASSCF), AVAS, COSX integrals, SCF dyn. polar., MC-PDFT, srDFT 
  Lee Huntington         : MR-EOM, pCC                                   
  Robert Izsak           : Overlap fitted RIJCOSX, COSX-SCS-MP3, EOM     
  Riya Kayal             : Wick's Theorem for AUTO-CI, AUTO-CI UHF-CCSDT 
  Emily Kempfer          : AUTO-CI RHF CISDT and CCSDT, approximate NEVPT4
  Christian Kollmar      : KDIIS, OOCD, Brueckner-CCSD(T), CCSD density, CASPT2, CASPT2-K, improved NEVPT2 
  Axel Koslowski         : Symmetry handling                             
  Simone Kossmann        : meta-GGA functionals, TD-DFT gradient, OOMP2, (MP2 Hessian; deprecated post 5.0) 
  Lucas Lang             : DCDCAS, Hyperfine gauge corrections, ICE-SOC+SSC
  Marvin Lechner         : AUTO-CI (C++ implementation), FIC-MRCC        
  Spencer Leger          : CASSCF response                               
  Dagmar Lenk            : GEPOL surface, SMD, ORCA-2-JSON               
  Dimitrios Liakos       : Extrapolation schemes; Compound Job, Property file
  Dimitrios Manganas     : Further ROCIS development; embedding schemes. LFT, Crystal Embedding 
  Dimitrios Pantazis     : SARC Basis sets                               
  Anastasios Papadopoulos: AUTO-CI, single reference methods and gradients 
  Taras Petrenko         : pre 6.0 DFT Hessian and TD-DFT gradient,  ECA, NRVS 
  Petra Pikulova         : Analytic Raman intensities                    
  Peter Pinski           : DLPNO-MP2, DLPNO-MP2 Gradient                 
  Shashank Vittal Rao    : ES-AILFT, MagRelax                            
  Christoph Reimann      : Effective Core Potentials                     
  Marius Retegan         : Local ZFS, SOC                                
  Christoph Riplinger    : Optimizer, TS searches, QM/MM, DLPNO-CCSD(T), (RO)-DLPNO pert. Triples 
  Michael Roemelt        : Original ROCIS implementation, recursive CI coupling coefficients
  Masaaki Saitow         : Open-shell DLPNO-CCSD energy and density      
  Barbara Sandhoefer     : DKH picture change effects                    
  Yorick L. A. Schmerwitz: GMF and freeze-and-release deltaSCF, NEB S-IDPP initial path                    
  Kantharuban Sivalingam : CASSCF convergence/infrastructure, NEVPT2, NEVPT3, NEVPT4(SD), FIC-MRCI and CEPA variants
  Bernardo de Souza      : ESD, SOC TD-DFT                               
  Georgi L. Stoychev     : AutoAux, RI-MP2 NMR, DLPNO-MP2 response, X2C  
  Van Anh Tran           : RI-MP2 g-tensors                              
  Willem Van den Heuvel  : Paramagnetic NMR                              
  Zikuan Wang            : NOTCH, Electric field optimization            
  Frank Wennmohs         : Technical directorship and infrastructure     
  Hang Xu                : AUTO-CI-Response properties                   
                                                                         
[FACCTs GmbH]                                                            
  Markus Bursch, Nicolas Foglia, Miquel Garcia-Rates, Ingolf Harden, Hagen Neugebauer, Anastasios Papadopoulos, 
  Christoph Riplinger, Bernardo de Souza, Georgi L. Stoychev                                                    
                                                                 
  APM, various basis sets, CI-OPT, improved COSX, DLPNO-Multilevel,           
  DOCKER, DRACO, updates on ESD, Fragmentator, GOAT, IRC, LR-CPCM, L-BFGS, MBIS, meta-GGA TD-DFT gradient, ML-optimized integration grids, 
  MM, NACMEs, nearIR, NEB, NEB-TS, NL-DFT gradient (VV10), 2- and 3-layer-ONIOM, interface openCOSMO-RS, QMMM,   
  Crystal-QMMM, RESP, rigid body optimization, SF, symmetry and pop. for TD-DFT, various functionals, SOLVATOR                                   
                                                                         
[Other institutions]                                                     
  V. Asgeirsson          : NEB                                           
  Christoph Bannwarth    : sTDA-DFT, sTD-DFT, PBEh-3c, B97-3c, D3        
  Giovanni Bistoni       : ETS/NOCV, ADLD/ADEX, COVALED                  
  Martin Brehm           : Molecular dynamics                            
  Ronald Cardenas        : ETS/NOCV                                      
  Martina Colucci        : COVALED                                       
  Sebastian Ehlert       : rSCAN, r2SCAN, r2SCAN-3c, D4, dhf basis sets  
  Marvin Friede          : D4 for Fr, Ra, Ac-Lr                          
  Lars Goerigk           : TD-DFT with DH, B97 family of functionals     
  Stefan Grimme          : VdW corrections, initial TS optimization, DFT functionals, gCP, sTDA/sTD-DF 
  Waldemar Hujo          : DFT-NL                                        
  H. Jonsson             : NEB                                           
  Holger Kruse           : gCP                                           
  Marcel Mueller         : wB97X-3c, vDZP basis set                      
  Hagen Neugebauer       : wr2SCAN, Native XTB                           
  Gianluca Regni         : ADLD/ADEX                                     
  Tobias Risthaus        : pre 6.0 range-separated hybrid DFT and stability analysis
  Lukas Wittmann         : regularized MP2, r2SCAN double-hybrids, wr2SCAN        
                                                                         
We gratefully acknowledge several colleagues who have allowed us to      
interface, adapt or use parts of their codes:                            
  Ed Valeev, F. Pavosevic, A. Kumar             : LibInt (2-el integral package), F12 methods 
  Garnet Chan, S. Sharma, J. Yang, R. Olivares  : DMRG                   
  Ulf Ekstrom                                   : XCFun DFT Library      
  Mihaly Kallay                                 : mrcc  (arbitrary order and MRCC methods)
  Frank Weinhold                                : gennbo (NPA and NBO analysis)           
  Simon Mueller                                 : openCOSMO-RS                            
  Christopher J. Cramer and Donald G. Truhlar   : smd solvation model                     
  S Lehtola, MJT Oliveira, MAL Marques          : LibXC Library                           
  Liviu Ungur et al                             : ANISO software                          


 Your calculation uses the libint2 library for the computation of 2-el integrals
 For citations please refer to: http://libint.valeyev.net

 Your ORCA version has been built with support for libXC version: 7.0.0
 For citations please refer to: https://libxc.gitlab.io

 This ORCA versions uses:
   CBLAS   interface :  Fast vector & matrix operations
   LAPACKE interface :  Fast linear algebra routines
   SCALAPACK package :  Parallel linear algebra routines
   Shared memory     :  Shared parallel matrices
   BLAS/LAPACK       :  OpenBLAS 0.3.29  USE64BITINT DYNAMIC_ARCH NO_AFFINITY Haswell SINGLE_THREADED
        Core in use  :  Haswell
   Copyright (c) 2011-2014, The OpenBLAS Project


  ***********************************
  * Starting time: Sat Jun 20 04:48:15 2026
  * Host name:     steezy
  * Process ID:    92073
  * Working dir.:  /home/jannes/metaltpp/pttpp/02_tddft_tda_comparison/runs/tdaoff_tpss
  ***********************************

NOTE: MaxCore=3000 MB was set to SCF,MP2,MDCI,CIPSI,MRCI,RASCI and CIS
      => If you want to overwrite this, your respective input block should be placed after the MaxCore statement


***************************************
The coordinates will be read from file: /home/jannes/metaltpp/pttpp/01_opt/pttpp_opt_b3lyp_tzvp.xyz
***************************************


================================================================================

cite the ECPs for Pt [Def2-ECP] as follows:
Ce-Yb(ecp-28): M. Dolg, H. Stoll, H.Preuss, J. Chem. Phys., 1989, 90, 1730-1734.
Y-Cd(ecp-28), Hf-Hg(ecp-46): D. Andrae,U. Haeussermann, M. Dolg, H. Stoll, H. Preuss, Theor. Chim. Acta, 1990, 77, 123-141.
In-Sb(ecp-28), Tl-Bi(ecp-46): B. Metz, H. Stoll, M. Dolg, J. Chem. Phys., 2000, 113, 2563-2569.
Te-Xe(ecp-28), Po-Rn(ecp-46): K. A. Peterson, D. Figgen, E. Goll, H. Stoll, M. Dolg, J. Chem. Phys., 2003, 119, 11113-11123.
Rb(ecp-28), Cs(ecp-46): T. Leininger, A. Nicklass, W. Kuechle, H. Stoll, M. Dolg, A. Bergner, Chem. Phys. Lett., 1996, 255, 274-280.
Sr(ecp-28), Ba(ecp-46): M. Kaupp, P. V. Schleyer, H. Stoll and H. Preuss, J. Chem. Phys., 1991, 94, 1360-1366.
La(ecp-46): M. Dolg, H. Stoll, A. Savin, H. Preuss, Theor. Chim. Acta, 1989, 75, 173-194.
Lu(ecp-28): X. Cao, M. Dolg, J. Chem. Phys., 2001, 115, 7348-7355.

ECP parameters for Pt [Def2-ECP] have been obtained from:
TURBOMOLE (7.0.2)

----- Orbital basis set information -----
Your calculation utilizes the basis: def2-TZVP
   F. Weigend and R. Ahlrichs, Phys. Chem. Chem. Phys. 7, 3297 (2005).

----- AuxJ basis set information -----
Your calculation utilizes the auxiliary basis: def2/J
   H-Rn: F. Weigend, Phys. Chem. Chem. Phys. 8, 1057 (2006).
   Fr-Lr: K. Eichkorn, F. Weigend, O. Treutler, R. Ahlrichs; Theor. Chem. Acc. 97, 119 (1997).

================================================================================
                                        WARNINGS
                       Please study these warnings very carefully!
================================================================================



WARNING: Found flag for RIJCOSX approximation but no HF exchange needed!
  ===> : RIJCOSX  will be disabled and Split-RI-J is turned on

WARNING: CIS/ROCIS methods need fully converged wavefunctions
  ===> : Setting SCFConvForced true
         You can overwrite this default with %scf ConvForced false 


================================================================================
                                       INPUT FILE
================================================================================
NAME = tddft.inp
|  1> %pal nprocs 8 end
|  2> %maxcore 3000
|  3> ! TPSS def2-TZVP def2/J RIJCOSX DefGrid3 TightSCF CPCM(Toluene)
|  4> %tddft
|  5>   nroots 30
|  6>   triplets false
|  7>   tda false
|  8> end
|  9> * xyzfile 0 1 /home/jannes/metaltpp/pttpp/01_opt/pttpp_opt_b3lyp_tzvp.xyz
| 10> 
| 11>                          ****END OF INPUT****
================================================================================

                       ****************************
                       * Single Point Calculation *
                       ****************************

---------------------------------
CARTESIAN COORDINATES (ANGSTROEM)
---------------------------------
  N     -2.108080    2.524279    3.521821
  H      1.680411   -2.228696    3.899477
  C     -4.349458    3.013050    3.514433
  C     -0.398442   -1.553009    3.873584
  N      0.088560    0.677670    3.651248
  C      0.949551   -1.440517    3.837518
  H     -0.984376   -2.450922    3.971525
  C      2.847257    1.833976    3.491404
  N     -0.257703    4.708353    3.279334
  C     -1.118860    6.826069    3.088574
  C      2.549630    0.479041    3.625472
  C      2.659016    4.025761    3.287331
  N      1.938935    2.861735    3.408577
  C      4.065124    3.715852    3.296533
  C     -0.942186   -0.224960    3.755982
  C      1.258712   -0.041150    3.698386
  C     -2.828125    1.360316    3.643826
  C     -3.016407    3.552146    3.440624
  C     -4.234182    1.670468    3.638051
  C     -2.303522    0.073788    3.753890
  C     -2.718800    4.906972    3.305530
  C      4.180359    2.373315    3.420619
  C     -1.427914    5.427035    3.231148
  C      0.229118    6.938555    3.051954
  C      2.134390    5.312204    3.175775
  C      0.772994    5.610851    3.172929
  H     -5.252396    3.598102    3.474038
  H     -5.024648    0.943812    3.717750
  H      5.083333    1.788511    3.463607
  H      4.855696    4.442619    3.219060
  H      0.814935    7.836215    2.951066
  H     -1.849779    7.614007    3.024296
  Pt    -0.084568    2.693014    3.465252
  C      3.695876   -0.484126    3.696986
  C      4.229424   -1.043081    2.534214
  C      5.293291   -1.936753    2.599920
  C      5.839023   -2.284185    3.830859
  C      5.314808   -1.733093    4.995018
  C      4.250819   -0.839685    4.927786
  H      3.806461   -0.774496    1.573874
  H      5.695024   -2.361196    1.688023
  H      6.667376   -2.979810    3.882542
  H      5.733653   -1.997749    5.958156
  H      3.844807   -0.411992    5.836385
  C     -3.268760   -1.066099    3.878097
  C     -3.705976   -1.754908    2.745100
  C     -4.601614   -2.812950    2.859511
  C     -5.072736   -3.197536    4.110076
  C     -4.643439   -2.517963    5.244832
  C     -3.748094   -1.459835    5.128853
  H     -3.340989   -1.457561    1.769571
  H     -4.931069   -3.336024    1.970147
  H     -5.769853   -4.021390    4.199691
  H     -5.004692   -2.810883    6.222985
  H     -3.415304   -0.932587    6.014595
  C     -3.865024    5.870187    3.234394
  C     -4.430187    6.214194    2.004966
  C     -5.494016    7.107822    1.938107
  C     -6.007887    7.670629    3.101275
  C     -5.451911    7.334755    4.330839
  C     -4.388123    6.440956    4.396165
  H     -4.032155    5.777467    1.097137
  H     -5.920696    7.363647    0.976017
  H     -6.836127    8.366411    3.049884
  H     -5.845584    7.768322    5.241963
  H     -3.957179    6.181389    5.355434
  C      3.099632    6.451912    3.050615
  C      3.597036    6.829503    1.801896
  C      4.492529    7.887381    1.684927
  C      4.904107    8.582789    2.816650
  C      4.415074    8.214280    4.065178
  C      3.519150    7.156593    4.180557
  H      3.277964    6.290038    0.918467
  H      4.867638    8.167831    0.708334
  H      5.601401    9.406404    2.726278
  H      4.730926    8.749507    4.952246
  H      3.140359    6.871707    5.154542

----------------------------
CARTESIAN COORDINATES (A.U.)
----------------------------
  NO LB      ZA    FRAG     MASS         X           Y           Z
   0 N     7.0000    0    14.007   -3.983695    4.770195    6.655278
   1 H     1.0000    0     1.008    3.175517   -4.211625    7.368943
   2 C     6.0000    0    12.011   -8.219284    5.693840    6.641315
   3 C     6.0000    0    12.011   -0.752946   -2.934761    7.320012
   4 N     7.0000    0    14.007    0.167354    1.280611    6.899858
   5 C     6.0000    0    12.011    1.794392   -2.722182    7.251858
   6 H     1.0000    0     1.008   -1.860201   -4.631572    7.505095
   7 C     6.0000    0    12.011    5.380536    3.465712    6.597798
   8 N     7.0000    0    14.007   -0.486989    8.897498    6.197042
   9 C     6.0000    0    12.011   -2.114338   12.899400    5.836559
  10 C     6.0000    0    12.011    4.818103    0.905256    6.851149
  11 C     6.0000    0    12.011    5.024812    7.607586    6.212156
  12 N     7.0000    0    14.007    3.664057    5.407895    6.441276
  13 C     6.0000    0    12.011    7.681970    7.021942    6.229544
  14 C     6.0000    0    12.011   -1.780474   -0.425112    7.097777
  15 C     6.0000    0    12.011    2.378621   -0.077763    6.988937
  16 C     6.0000    0    12.011   -5.344382    2.570625    6.885832
  17 C     6.0000    0    12.011   -5.700183    6.712584    6.501837
  18 C     6.0000    0    12.011   -8.001444    3.156728    6.874921
  19 C     6.0000    0    12.011   -4.353026    0.139440    7.093824
  20 C     6.0000    0    12.011   -5.137787    9.272834    6.246547
  21 C     6.0000    0    12.011    7.899733    4.484916    6.464033
  22 C     6.0000    0    12.011   -2.698366   10.255611    6.105984
  23 C     6.0000    0    12.011    0.432971   13.111968    5.767357
  24 C     6.0000    0    12.011    4.033413   10.038611    6.001345
  25 C     6.0000    0    12.011    1.460747   10.602973    5.995967
  26 H     1.0000    0     1.008   -9.925590    6.799427    6.564980
  27 H     1.0000    0     1.008   -9.495208    1.783546    7.025529
  28 H     1.0000    0     1.008    9.606108    3.379796    6.545268
  29 H     1.0000    0     1.008    9.175936    8.395334    6.083142
  30 H     1.0000    0     1.008    1.540005   14.808300    5.576706
  31 H     1.0000    0     1.008   -3.495577   14.388387    5.715091
  32 Pt   18.0000*   0   195.090   -0.159811    5.089059    6.548377
  33 C     6.0000    0    12.011    6.984193   -0.914865    6.986290
  34 C     6.0000    0    12.011    7.992453   -1.971137    4.788970
  35 C     6.0000    0    12.011   10.002871   -3.659933    4.913137
  36 C     6.0000    0    12.011   11.034155   -4.316485    7.239275
  37 C     6.0000    0    12.011   10.043531   -3.275071    9.439216
  38 C     6.0000    0    12.011    8.032884   -1.586774    9.312167
  39 H     1.0000    0     1.008    7.193169   -1.463586    2.974191
  40 H     1.0000    0     1.008   10.762035   -4.462014    3.189901
  41 H     1.0000    0     1.008   12.599515   -5.631026    7.336940
  42 H     1.0000    0     1.008   10.835033   -3.775199   11.259284
  43 H     1.0000    0     1.008    7.265632   -0.778551   11.029169
  44 C     6.0000    0    12.011   -6.177061   -2.014635    7.328540
  45 C     6.0000    0    12.011   -7.003279   -3.316296    5.187487
  46 C     6.0000    0    12.011   -8.695790   -5.315704    5.403693
  47 C     6.0000    0    12.011   -9.586081   -6.042468    7.766919
  48 C     6.0000    0    12.011   -8.774829   -4.758261    9.911296
  49 C     6.0000    0    12.011   -7.082871   -2.758689    9.692128
  50 H     1.0000    0     1.008   -6.313555   -2.754391    3.344005
  51 H     1.0000    0     1.008   -9.318370   -6.304172    3.723038
  52 H     1.0000    0     1.008  -10.903441   -7.599325    7.936267
  53 H     1.0000    0     1.008   -9.457497   -5.311799   11.759738
  54 H     1.0000    0     1.008   -6.453989   -1.762334   11.365937
  55 C     6.0000    0    12.011   -7.303836   11.093045    6.112119
  56 C     6.0000    0    12.011   -8.371839   11.743125    3.788836
  57 C     6.0000    0    12.011  -10.382185   13.431836    3.662491
  58 C     6.0000    0    12.011  -11.353260   14.495389    5.860560
  59 C     6.0000    0    12.011  -10.302620   13.860678    8.184099
  60 C     6.0000    0    12.011   -8.292350   12.171643    8.307548
  61 H     1.0000    0     1.008   -7.619669   10.917831    2.073289
  62 H     1.0000    0     1.008  -11.188494   13.915276    1.844404
  63 H     1.0000    0     1.008  -12.918407   15.810225    5.763445
  64 H     1.0000    0     1.008  -11.046554   14.680001    9.905874
  65 H     1.0000    0     1.008   -7.477985   11.681133   10.120303
  66 C     6.0000    0    12.011    5.857456   12.192346    5.764826
  67 C     6.0000    0    12.011    6.797412   12.905891    3.405090
  68 C     6.0000    0    12.011    8.489649   14.904990    3.184050
  69 C     6.0000    0    12.011    9.267419   16.219121    5.322696
  70 C     6.0000    0    12.011    8.343282   15.522739    7.682073
  71 C     6.0000    0    12.011    6.650230   13.524000    7.900107
  72 H     1.0000    0     1.008    6.194455   11.886449    1.735651
  73 H     1.0000    0     1.008    9.198503   15.434964    1.338557
  74 H     1.0000    0     1.008   10.585114   17.775528    5.151919
  75 H     1.0000    0     1.008    8.940155   16.534172    9.358389
  76 H     1.0000    0     1.008    5.934418   12.985645    9.740672
* core charge reduced due to ECP

--------------------------------
INTERNAL COORDINATES (ANGSTROEM)
--------------------------------
 N      0   0   0     0.000000000000     0.00000000     0.00000000
 H      1   0   0     6.089832256915     0.00000000     0.00000000
 C      1   2   0     2.294063090683   140.74176214     0.00000000
 C      2   1   3     2.186058927993    33.53335273   359.92265709
 N      4   2   1     2.294020897270    95.72890635     0.10546907
 C      2   1   3     1.076671203535     4.28148201     0.76320005
 H      4   2   1     1.076643136205   104.99163936   180.17044812
 C      5   4   2     2.995496821757   125.17232846   359.95170789
 N      1   2   6     2.872782191544   101.41443537   180.92446091
 C      9   1   2     2.294057415200   117.84326184   179.81391117
 C      8   5   4     1.393701733153    54.75457960     0.05078862
 C      8   5   4     2.209298860825   108.02399739   180.06849786
 N     12   8   5     1.374108023534    36.49594011   359.85291816
 C     12   8   5     1.439884359416    72.70322819   179.77047234
 C      5   4   2     1.374098890945    36.35271280   179.94709567
 C      5   4   2     1.374110759826    70.65740558     0.00000000
 C      1   2   6     1.374102513224    70.08426492     0.83102631
 C      1   2   6     1.374104181827   177.09106081   359.91368685
 C      3   1   2     1.353180115826    72.84740619     0.03202793
 C     17   1   2     1.393727591634   126.27704883   359.94255782
 C     18   1  17     1.393690734403   126.28058068   180.12050265
 C     14  12   8     1.353174432699   107.29474691     0.04043156
 C      9   1   2     1.374124689963    81.49261096   179.89296568
 C     10   9   1     1.353158739827    72.84487769   180.14128539
 C     12   8   5     1.393776449906   162.77292880     0.09131181
 C      9   1   2     1.374104260394   171.49629015     0.30752931
 H      3   1   2     1.076668202645   159.27279615   180.19803218
 H     19   3   1     1.076670016901   127.86795644   180.12045937
 H     22  14  12     1.076664815862   127.87750005   180.06413545
 H     14  12   8     1.076660440674   124.84173600   180.15159032
 H     24  10   9     1.076639923869   127.87044857   179.86867986
 H     10   9   1     1.076671380117   159.28883997   359.97600660
 Pt     9   1   2     2.031288587650    44.99884979     0.06872539
 C     11   8   5     1.498893804608   117.77447688   180.03602460
 C     34  11   8     1.396117137706   120.64945491   270.75706970
 C     35  34  11     1.390964009505   120.67588829   179.98774264
 C     36  35  34     1.390591350226   120.16522925     0.00000000
 C     37  36  35     1.390600507021   119.61009114     0.00000000
 C     38  37  36     1.390960194315   120.16113054     0.00000000
 H     35  34  11     1.083183971663   119.33427522     0.00000000
 H     36  35  34     1.083096432234   119.71547006   179.99024958
 H     37  36  35     1.082928204555   120.19365915   180.00752098
 H     38  37  36     1.083101984056   120.12085939   180.01353522
 H     39  38  37     1.083198271163   119.98542222   180.01026686
 C     20  17   1     1.498817712446   117.78589349   180.00672480
 C     45  20  17     1.396172247109   120.63921366    92.70159491
 C     46  45  20     1.390938263792   120.67528316   179.99310832
 C     47  46  45     1.390602710218   120.16502648     0.00000000
 C     48  47  46     1.390606348796   119.61039275     0.00000000
 C     49  48  47     1.390945348680   120.16114394     0.00000000
 H     46  45  20     1.083183654099   119.33385303   359.96149731
 H     47  46  45     1.083104870825   119.71443278   179.95626462
 H     48  47  46     1.082929845840   120.19248561   180.01608382
 H     49  48  47     1.083092545972   120.12054737   180.03134760
 H     50  49  48     1.083179847693   119.99160542   180.01693933
 C     21  18   1     1.498890074798   117.77510857   179.97480889
 C     56  21  18     1.396153045327   120.64301280   269.93028884
 C     57  56  21     1.390961388547   120.67863705   179.99069446
 C     58  57  56     1.390602143068   120.16110562     0.00000000
 C     59  58  57     1.390592629437   119.60993104     0.00000000
 C     60  59  58     1.390967213387   120.16543600     0.00000000
 H     57  56  21     1.083195112918   119.33581920     0.00000000
 H     58  57  56     1.083106776980   119.71810161   180.00814271
 H     59  58  57     1.082928610081   120.19622210   180.00101373
 H     60  59  58     1.083100398606   120.11925419   179.99040517
 H     61  60  59     1.083182393446   119.98960067   179.99577222
 C     25  12   8     1.498762696980   117.78410027   179.91129462
 C     67  25  12     1.396167459671   120.64989280    86.19362558
 C     68  67  25     1.390932972506   120.68172546   179.97943157
 C     69  68  67     1.390606407520   120.16175598     0.03388652
 C     70  69  68     1.390602219423   119.60930377     0.00000000
 C     71  70  69     1.390932733128   120.16570505   359.97464563
 H     68  67  25     1.083178963886   119.32855364     0.04057871
 H     69  68  67     1.083094482234   119.71784167   180.07288493
 H     70  69  68     1.082925406610   120.19800962   179.99037437
 H     71  70  69     1.083107173769   120.12069447   179.93332528
 H     72  71  70     1.083184899321   119.98886455   179.97420670

---------------------------
INTERNAL COORDINATES (A.U.)
---------------------------
 N      0   0   0     0.000000000000     0.00000000     0.00000000
 H      1   0   0    11.508115167089     0.00000000     0.00000000
 C      1   2   0     4.335150975327   140.74176214     0.00000000
 C      2   1   3     4.131052686520    33.53335273   359.92265709
 N      4   2   1     4.335071241333    95.72890635     0.10546907
 C      2   1   3     2.034613710961     4.28148201     0.76320005
 H      4   2   1     2.034560671393   104.99163936   180.17044812
 C      5   4   2     5.660668628152   125.17232846   359.95170789
 N      1   2   6     5.428771584425   101.41443537   180.92446091
 C      9   1   2     4.335140250219   117.84326184   179.81391117
 C      8   5   4     2.633714588030    54.75457960     0.05078862
 C      8   5   4     4.174969794943   108.02399739   180.06849786
 N     12   8   5     2.596687842903    36.49594011   359.85291816
 C     12   8   5     2.720987103814    72.70322819   179.77047234
 C      5   4   2     2.596670584811    36.35271280   179.94709567
 C      5   4   2     2.596693013746    70.65740558     0.00000000
 C      1   2   6     2.596677429926    70.08426492     0.83102631
 C      1   2   6     2.596680583128   177.09106081   359.91368685
 C      3   1   2     2.557139828778    72.84740619     0.03202793
 C     17   1   2     2.633763453477   126.27704883   359.94255782
 C     18   1  17     2.633693803405   126.28058068   180.12050265
 C     14  12   8     2.557129089226   107.29474691     0.04043156
 C      9   1   2     2.596719337889    81.49261096   179.89296568
 C     10   9   1     2.557099433996    72.84487769   180.14128539
 C     12   8   5     2.633855782231   162.77292880     0.09131181
 C      9   1   2     2.596680731599   171.49629015     0.30752931
 H      3   1   2     2.034608040100   159.27279615   180.19803218
 H     19   3   1     2.034611468547   127.86795644   180.12045937
 H     22  14  12     2.034601640007   127.87750005   180.06413545
 H     14  12   8     2.034593372101   124.84173600   180.15159032
 H     24  10   9     2.034554600958   127.87044857   179.86867986
 H     10   9   1     2.034614044652   159.28883997   359.97600660
 Pt     9   1   2     3.838579129617    44.99884979     0.06872539
 C     11   8   5     2.832498794540   117.77447688   180.03602460
 C     34  11   8     2.638279041138   120.64945491   270.75706970
 C     35  34  11     2.628541040106   120.67588829   179.98774264
 C     36  35  34     2.627836816127   120.16522925     0.00000000
 C     37  36  35     2.627854119961   119.61009114     0.00000000
 C     38  37  36     2.628533830441   120.16113054     0.00000000
 H     35  34  11     2.046921059095   119.33427522     0.00000000
 H     36  35  34     2.046755633549   119.71547006   179.99024958
 H     37  36  35     2.046437729308   120.19365915   180.00752098
 H     38  37  36     2.046766124973   120.12085939   180.01353522
 H     39  38  37     2.046948081236   119.98542222   180.01026686
 C     20  17   1     2.832355001194   117.78589349   180.00672480
 C     45  20  17     2.638383182818   120.63921366    92.70159491
 C     46  45  20     2.628492387758   120.67528316   179.99310832
 C     47  46  45     2.627858283401   120.16502648     0.00000000
 C     48  47  46     2.627865159316   119.61039275     0.00000000
 C     49  48  47     2.628505776256   120.16114394     0.00000000
 H     46  45  20     2.046920458988   119.33385303   359.96149731
 H     47  46  45     2.046771580176   119.71443278   179.95626462
 H     48  47  46     2.046440830888   120.19248561   180.01608382
 H     49  48  47     2.046748289578   120.12054737   180.03134760
 H     50  49  48     2.046913265923   119.99160542   180.01693933
 C     21  18   1     2.832491746221   117.77510857   179.97480889
 C     56  21  18     2.638346896709   120.64301280   269.93028884
 C     57  56  21     2.628536087212   120.67863705   179.99069446
 C     58  57  56     2.627857211642   120.16110562     0.00000000
 C     59  58  57     2.627839233485   119.60993104     0.00000000
 C     60  59  58     2.628547094564   120.16543600     0.00000000
 H     57  56  21     2.046942113016   119.33581920     0.00000000
 H     58  57  56     2.046775182287   119.71810161   180.00814271
 H     59  58  57     2.046438495642   120.19622210   180.00101373
 H     60  59  58     2.046763128907   120.11925419   179.99040517
 H     61  60  59     2.046918076699   119.98960067   179.99577222
 C     25  12   8     2.832251037029   117.78410027   179.91129462
 C     67  25  12     2.638374135870   120.64989280    86.19362558
 C     68  67  25     2.628482388677   120.68172546   179.97943157
 C     69  68  67     2.627865270289   120.16175598     0.03388652
 C     70  69  68     2.627857355933   119.60930377     0.00000000
 C     71  70  69     2.628481936318   120.16570505   359.97464563
 H     68  67  25     2.046911595768   119.32855364     0.04057871
 H     69  68  67     2.046751948583   119.71784167   180.07288493
 H     70  69  68     2.046432441958   120.19800962   179.99037437
 H     71  70  69     2.046775932108   120.12069447   179.93332528
 H     72  71  70     2.046922812116   119.98886455   179.97420670

---------------------
BASIS SET INFORMATION
---------------------
There are 4 groups of distinct atoms

 Group   1 Type N   : 11s6p2d1f contracted to 5s3p2d1f pattern {62111/411/11/1}
 Group   2 Type H   : 5s1p contracted to 3s1p pattern {311/1}
 Group   3 Type C   : 11s6p2d1f contracted to 5s3p2d1f pattern {62111/411/11/1}
 Group   4 Type Pt  : 8s7p6d1f contracted to 6s4p3d1f pattern {311111/4111/411/1}

Atom   0N    basis set group =>   1
Atom   1H    basis set group =>   2
Atom   2C    basis set group =>   3
Atom   3C    basis set group =>   3
Atom   4N    basis set group =>   1
Atom   5C    basis set group =>   3
Atom   6H    basis set group =>   2
Atom   7C    basis set group =>   3
Atom   8N    basis set group =>   1
Atom   9C    basis set group =>   3
Atom  10C    basis set group =>   3
Atom  11C    basis set group =>   3
Atom  12N    basis set group =>   1
Atom  13C    basis set group =>   3
Atom  14C    basis set group =>   3
Atom  15C    basis set group =>   3
Atom  16C    basis set group =>   3
Atom  17C    basis set group =>   3
Atom  18C    basis set group =>   3
Atom  19C    basis set group =>   3
Atom  20C    basis set group =>   3
Atom  21C    basis set group =>   3
Atom  22C    basis set group =>   3
Atom  23C    basis set group =>   3
Atom  24C    basis set group =>   3
Atom  25C    basis set group =>   3
Atom  26H    basis set group =>   2
Atom  27H    basis set group =>   2
Atom  28H    basis set group =>   2
Atom  29H    basis set group =>   2
Atom  30H    basis set group =>   2
Atom  31H    basis set group =>   2
Atom  32Pt   basis set group =>   4
Atom  33C    basis set group =>   3
Atom  34C    basis set group =>   3
Atom  35C    basis set group =>   3
Atom  36C    basis set group =>   3
Atom  37C    basis set group =>   3
Atom  38C    basis set group =>   3
Atom  39H    basis set group =>   2
Atom  40H    basis set group =>   2
Atom  41H    basis set group =>   2
Atom  42H    basis set group =>   2
Atom  43H    basis set group =>   2
Atom  44C    basis set group =>   3
Atom  45C    basis set group =>   3
Atom  46C    basis set group =>   3
Atom  47C    basis set group =>   3
Atom  48C    basis set group =>   3
Atom  49C    basis set group =>   3
Atom  50H    basis set group =>   2
Atom  51H    basis set group =>   2
Atom  52H    basis set group =>   2
Atom  53H    basis set group =>   2
Atom  54H    basis set group =>   2
Atom  55C    basis set group =>   3
Atom  56C    basis set group =>   3
Atom  57C    basis set group =>   3
Atom  58C    basis set group =>   3
Atom  59C    basis set group =>   3
Atom  60C    basis set group =>   3
Atom  61H    basis set group =>   2
Atom  62H    basis set group =>   2
Atom  63H    basis set group =>   2
Atom  64H    basis set group =>   2
Atom  65H    basis set group =>   2
Atom  66C    basis set group =>   3
Atom  67C    basis set group =>   3
Atom  68C    basis set group =>   3
Atom  69C    basis set group =>   3
Atom  70C    basis set group =>   3
Atom  71C    basis set group =>   3
Atom  72H    basis set group =>   2
Atom  73H    basis set group =>   2
Atom  74H    basis set group =>   2
Atom  75H    basis set group =>   2
Atom  76H    basis set group =>   2
---------------------------------
AUXILIARY/J BASIS SET INFORMATION
---------------------------------
There are 4 groups of distinct atoms

 Group   1 Type N   : 12s5p4d2f1g contracted to 6s4p3d1f1g pattern {711111/2111/211/2/1}
 Group   2 Type H   : 5s2p1d contracted to 3s1p1d pattern {311/2/1}
 Group   3 Type C   : 12s5p4d2f1g contracted to 6s4p3d1f1g pattern {711111/2111/211/2/1}
 Group   4 Type Pt  : 11s5p5d3f3g contracted to 8s5p5d2f3g pattern {41111111/11111/11111/21/111}

Atom   0N    basis set group =>   1
Atom   1H    basis set group =>   2
Atom   2C    basis set group =>   3
Atom   3C    basis set group =>   3
Atom   4N    basis set group =>   1
Atom   5C    basis set group =>   3
Atom   6H    basis set group =>   2
Atom   7C    basis set group =>   3
Atom   8N    basis set group =>   1
Atom   9C    basis set group =>   3
Atom  10C    basis set group =>   3
Atom  11C    basis set group =>   3
Atom  12N    basis set group =>   1
Atom  13C    basis set group =>   3
Atom  14C    basis set group =>   3
Atom  15C    basis set group =>   3
Atom  16C    basis set group =>   3
Atom  17C    basis set group =>   3
Atom  18C    basis set group =>   3
Atom  19C    basis set group =>   3
Atom  20C    basis set group =>   3
Atom  21C    basis set group =>   3
Atom  22C    basis set group =>   3
Atom  23C    basis set group =>   3
Atom  24C    basis set group =>   3
Atom  25C    basis set group =>   3
Atom  26H    basis set group =>   2
Atom  27H    basis set group =>   2
Atom  28H    basis set group =>   2
Atom  29H    basis set group =>   2
Atom  30H    basis set group =>   2
Atom  31H    basis set group =>   2
Atom  32Pt   basis set group =>   4
Atom  33C    basis set group =>   3
Atom  34C    basis set group =>   3
Atom  35C    basis set group =>   3
Atom  36C    basis set group =>   3
Atom  37C    basis set group =>   3
Atom  38C    basis set group =>   3
Atom  39H    basis set group =>   2
Atom  40H    basis set group =>   2
Atom  41H    basis set group =>   2
Atom  42H    basis set group =>   2
Atom  43H    basis set group =>   2
Atom  44C    basis set group =>   3
Atom  45C    basis set group =>   3
Atom  46C    basis set group =>   3
Atom  47C    basis set group =>   3
Atom  48C    basis set group =>   3
Atom  49C    basis set group =>   3
Atom  50H    basis set group =>   2
Atom  51H    basis set group =>   2
Atom  52H    basis set group =>   2
Atom  53H    basis set group =>   2
Atom  54H    basis set group =>   2
Atom  55C    basis set group =>   3
Atom  56C    basis set group =>   3
Atom  57C    basis set group =>   3
Atom  58C    basis set group =>   3
Atom  59C    basis set group =>   3
Atom  60C    basis set group =>   3
Atom  61H    basis set group =>   2
Atom  62H    basis set group =>   2
Atom  63H    basis set group =>   2
Atom  64H    basis set group =>   2
Atom  65H    basis set group =>   2
Atom  66C    basis set group =>   3
Atom  67C    basis set group =>   3
Atom  68C    basis set group =>   3
Atom  69C    basis set group =>   3
Atom  70C    basis set group =>   3
Atom  71C    basis set group =>   3
Atom  72H    basis set group =>   2
Atom  73H    basis set group =>   2
Atom  74H    basis set group =>   2
Atom  75H    basis set group =>   2
Atom  76H    basis set group =>   2
-------------------------
ECP PARAMETER INFORMATION
-------------------------

 Group 1, Type Pt ECP Def2-ECP (replacing 60 core electrons, lmax=3)

Atom  32Pt   ECP group =>   1



           ************************************************************
           *        Program running with 8 parallel MPI-processes     *
           *              working on a common directory               *
           ************************************************************
------------------------------------------------------------------------------
                             ORCA STARTUP CALCULATIONS
                           -- RI-GTO INTEGRALS CHOSEN --
------------------------------------------------------------------------------
------------------------------------------------------------------------------
                   ___                                                        
                  /   \      - P O W E R E D   B Y -                         
                 /     \                                                     
                 |  |  |   _    _      __       _____    __    __             
                 |  |  |  | |  | |    /  \     |  _  \  |  |  /  |          
                  \  \/   | |  | |   /    \    | | | |  |  | /  /          
                 / \  \   | |__| |  /  /\  \   | |_| |  |  |/  /          
                |  |  |   |  __  | /  /__\  \  |    /   |      \           
                |  |  |   | |  | | |   __   |  |    \   |  |\   \          
                \     /   | |  | | |  |  |  |  | |\  \  |  | \   \       
                 \___/    |_|  |_| |__|  |__|  |_| \__\ |__|  \__/        
                                                                              
                      - O R C A' S   B I G   F R I E N D -                    
                                      &                                       
                       - I N T E G R A L  F E E D E R -                       
                                                                              
 v1 FN, 2020, v2 2021, v3 2022-2024                                           
------------------------------------------------------------------------------


----------------------
SHARK INTEGRAL PACKAGE
----------------------

Number of atoms                             ...     77
Number of basis functions                   ...   1696
Number of shells                            ...    654
Maximum angular momentum                    ...      3
Integral batch strategy                     ... SHARK/LIBINT Hybrid
RI-J (if used) integral strategy            ... SPLIT-RIJ (Revised 2003 algorithm where possible)
Printlevel                                  ...      1
Contraction scheme used                     ... SEGMENTED contraction
Prescreening option                         ... SCHWARTZ
   Thresh                                   ... 2.500e-11
   Tcut                                     ... 2.500e-12
   Tpresel                                  ... 2.500e-12 
Coulomb Range Separation                    ... NOT USED
Exchange Range Separation                   ... NOT USED
Multipole approximations                    ... NOT USED
Finite Nucleus Model                        ... NOT USED
CABS basis                                  ... NOT available
Auxiliary Coulomb fitting basis             ... AVAILABLE
   # of basis functions in Aux-J            ...   2749
   # of shells in Aux-J                     ...    883
   Maximum angular momentum in Aux-J        ...      4
Auxiliary J/K fitting basis                 ... NOT available
Auxiliary Correlation fitting basis         ... NOT available
Auxiliary 'external' fitting basis          ... NOT available

Checking pre-screening integrals            ... done (  0.0 sec) Dimension = 654
   => SHARK Basis and OBASIS are compatible. Storing Pre-screening
Shell pair information
Shell pair cut-off parameter TPreSel        ...   2.5e-12
Total number of shell pairs                 ...    214185
Shell pairs after pre-screening             ...    104262
Total number of primitive shell pairs       ...    662980
Primitive shell pairs kept                  ...    199011
          la=0 lb=0:  24757 shell pairs
          la=1 lb=0:  30544 shell pairs
          la=1 lb=1:   9329 shell pairs
          la=2 lb=0:  14788 shell pairs
          la=2 lb=1:   9305 shell pairs
          la=2 lb=2:   2246 shell pairs
          la=3 lb=0:   6688 shell pairs
          la=3 lb=1:   4243 shell pairs
          la=3 lb=2:   1903 shell pairs
          la=3 lb=3:    459 shell pairs

Checking whether 4 symmetric matrices of dimension 1696 fit in memory
:Max Core in MB      =   3000.00
 MB in use           =    127.03
 MB left             =   2872.97
 MB needed           =     43.92
 Data fit in memory  = YES
Calculating RI/J V-Matrix + Cholesky decomp.... done (  2.9 sec)
Calculating Nuclear repulsion               ... done (  0.0 sec) ENN=   6002.797249912694 Eh

Diagonalization of the overlap matrix:
Smallest eigenvalue                        ... 2.861e-06
Time for diagonalization                   ...    1.094 sec
Threshold for overlap eigenvalues          ... 1.000e-07
Number of eigenvalues below threshold      ... 0
Time for construction of square roots      ...    0.711 sec
Total time needed                          ...    1.879 sec

-------------------
DFT GRID GENERATION
-------------------

General Integration Accuracy     IntAcc      ... 4.959
Radial Grid Type                 RadialGrid  ... OptM3 with GC (2021)
Angular Grid (max. ang.)         AngularGrid ... 6 (Lebedev-590)
Angular grid pruning method      GridPruning ... 4 (adaptive)
Weight generation scheme         WeightScheme... mBecke (2022)
Basis function cutoff            BFCut       ... 1.0000e-11
Integration weight cutoff        WCut        ... 1.0000e-14
Partially contracted basis set               ... off
Rotationally invariant grid construction     ... off
Angular grids for H and He will be reduced by one unit

Total number of grid points                  ...   932047
Total number of batches                      ...    14605
Average number of points per batch           ...       63
Average number of grid points per atom       ...    12105
Grids setup in  35.3 sec
Initializing property integral containers    ... done (  0.0 sec)

SHARK setup successfully completed in  49.6 seconds

Maximum memory used throughout the entire STARTUP-calculation: 305.1 MB


           ************************************************************
           *        Program running with 8 parallel MPI-processes     *
           *              working on a common directory               *
           ************************************************************
-------------------------------------------------------------------------------
                                 ORCA GUESS
                   Start orbitals & Density for SCF / CASSCF
-------------------------------------------------------------------------------

------------
SCF SETTINGS
------------
Hamiltonian:
 Density Functional     Method          .... DFT(GTOs)
 Exchange Functional    Exchange        .... TPSS
 Correlation Functional Correlation     .... TPSS
 LDA part of GGA corr.  LDAOpt          .... PW91-LDA
 Gradients option       PostSCFGGA      .... off
   NL short-range parameter             ....  5.000000
 RI-approximation to the Coulomb term is turned on
   Number of AuxJ basis functions       .... 2749


General Settings:
 Integral files         IntName         .... tddft
 Hartree-Fock type      HFTyp           .... RHF
 Total Charge           Charge          ....    0
 Multiplicity           Mult            ....    1
 Number of Electrons    NEL             ....  338
 Basis Dimension        Dim             .... 1696
 Nuclear Repulsion      ENuc            ....   6002.7972499127 Eh

Convergence Acceleration:
 AO-DIIS                CNVDIIS         .... on
   Start iteration      DIISMaxIt       ....    12
   Startup error        DIISStart       ....  0.200000
   # of expansion vecs  DIISMaxEq       ....     5
   Bias factor          DIISBfac        ....   1.050
   Max. coefficient     DIISMaxC        ....  10.000
 MO-DIIS                CNVKDIIS        .... off
 Trust-Rad. Augm. Hess. CNVTRAH         .... auto
   Auto Start mean grad. ratio tolernc. ....  1.125000
   Auto Start start iteration           ....    50
   Auto Start num. interpolation iter.  ....    10
   Max. Number of Micro iterations      ....    24
   Max. Number of Macro iterations      .... Maxiter - #DIIS iter
   Number of Davidson start vectors     ....     2
   Converg. threshold    (grad. norm)   ....   1.000e-05
   Grad. Scal. Fac. for Micro threshold ....   0.100
   Minimum threshold for Micro iter.    ....   1.000e-02
   NR start threshold (gradient norm)   ....   1.000e-04
   Initial trust radius                 ....   0.400
   Minimum AH scaling param. (alpha)    ....   1.000
   Maximum AH scaling param. (alpha)    .... 1000.000
   Quad. conv. algorithm                .... NR
   White noise on init. David. guess    .... on
   Maximum white noise                  ....   0.010
   Pseudo random numbers                .... off
   Inactive MOs                         .... canonical
   Orbital update algorithm             .... Taylor
   Preconditioner                       .... Diag
   Full preconditioner red. dimension   ....   250
 SOSCF                 CNVSOSCF           .... on
   Start iteration     SOSCFMaxIt         ....   150
   Startup grad/error  SOSCFStart         ....  0.003300
   Hessian update      SOSCFHessUp        .... L-BFGS
   Autom. constraints  SOSCFAutoConstrain .... off
 Level Shifting         CNVShift        .... on
   Level shift para.    LevelShift      ....    0.2500
   Turn off err/grad.   ShiftErr        ....    0.0010
 Zerner damping         CNVZerner       .... off
 Static damping         CNVDamp         .... on
   Fraction old density DampFac         ....    0.7000
   Max. Damping (<1)    DampMax         ....    0.9800
   Min. Damping (>=0)   DampMin         ....    0.0000
   Turn off err/grad.   DampErr         ....    0.1000

SCF Procedure:
 Maximum # iterations   MaxIter         ....   125
 SCF integral mode      SCFMode         .... Direct
   Integral package                     .... SHARK and LIBINT hybrid scheme
 Reset frequency        DirectResetFreq ....    20
 Integral Threshold     Thresh          ....  2.500e-11 Eh
 Primitive CutOff       TCut            ....  2.500e-12 Eh

Convergence Tolerance:
 Convergence Check Mode ConvCheckMode   .... Total+1el-Energy
 Convergence forced     ConvForced      .... 1
 Energy Change          TolE            ....  1.000e-08 Eh
 1-El. energy change                    ....  1.000e-05 Eh
 Orbital Gradient       TolG            ....  1.000e-05
 Orbital Rotation angle TolX            ....  1.000e-05
 DIIS Error             TolErr          ....  5.000e-07

------------------------------
INITIAL GUESS: MODEL POTENTIAL
------------------------------
Loading Hartree-Fock densities                     ... done
Atomic calculation to generate a density for atom 32 (Pt with ECP)
  Multiplicity assumed   :    3
  Atomic configuration   : 1s2 2s2 2p6 3s2 3p6 4s2 3d10 4p6 5s2 4d10 5p6 6s2 4f14 5d8 
  Number of open shells  : 1
  Command: /opt/orca/orca tddft_atom78.inp "" > tddft_atom78.out
Returned from the atomic calculation with res=0
Calculating cut-offs                               ... done
Initializing the effective Hamiltonian             ... done
Setting up the integral package (SHARK)            ... done
Starting the Coulomb interaction                   ... done (   9.6 sec)
Making the grid                                    ... done (   2.6 sec)
Mapping shells                                     ... done
Starting the XC term evaluation                    ... done (   3.6 sec)
  promolecular density results
     # of electrons  =    397.982530950
     EX              =   -616.975643218
     EC              =    -15.584798733
     EX+EC           =   -632.560441951
Transforming the Hamiltonian                       ... done (   0.7 sec)
Diagonalizing the Hamiltonian                      ... done (   1.2 sec)
Back transforming the eigenvectors                 ... done (   0.4 sec)
Now organizing SCF variables                       ... done
                      ------------------
                      INITIAL GUESS DONE (  24.7 sec)
                      ------------------
             **** ENERGY FILE WAS UPDATED (tddft.en.tmp) ****
Finished Guess after  28.8 sec
Maximum memory used throughout the entire GUESS-calculation: 206.5 MB


           ************************************************************
           *        Program running with 8 parallel MPI-processes     *
           *              working on a common directory               *
           ************************************************************

-------------------------------------------------------------------------------------------
                                      ORCA LEAN-SCF
                              memory conserving SCF solver
-------------------------------------------------------------------------------------------

--------------------
CPCM SOLVATION MODEL
--------------------
CPCM parameters:
  Epsilon                                         ...       2.3870
  Refrac                                          ...       1.4961
  Rsolv                                           ...       1.3000
  Surface type                                    ... GAUSSIAN VDW
  Discretization scheme                           ... Constant charge density
    Threshold for H atoms                         ...       5.0000 (charges/Ang^2)
    Threshold for non-H atoms                     ...       5.0000 (charges/Ang^2)
  Epsilon function type                           ...         CPCM
Solvent:                                          ... TOLUENE
Radii:
  Scheme                                          ... Element-dependent radii
  Radius for N  used is    3.5149 Bohr (=   1.8600 Ang.)
  Radius for H  used is    2.4944 Bohr (=   1.3200 Ang.)
  Radius for C  used is    3.8550 Bohr (=   2.0400 Ang.)
  Radius for Pt used is    3.9004 Bohr (=   2.0640 Ang.)
Calculating surface                               ...        done! (  0.1s)
Cavity surface points                             ...         6828
Cavity Volume                                     ...    4942.1642
Cavity Surface-area                               ...    2293.1756
Calculating surface distance matrix               ...        done! (  0.9s)
Performing Cholesky decomposition & store         ...        done! (  2.2s)
Overall time for CPCM initialization              ...                 3.2s

----------------------------------------D-I-I-S--------------------------------------------
Iteration    Energy (Eh)           Delta-E    RMSDP     MaxDP     DIISErr   Damp  Time(sec)
-------------------------------------------------------------------------------------------
               ***  Starting incremental Fock matrix formation  ***
    1    -2032.2386071732653363     0.00e+00  4.71e-03  2.95e-01  5.10e-01  0.700  65.7
Warning: op=0 Small HOMO/LUMO gap (   0.082) - skipping pre-diagonalization
         Will do a full diagonalization
    2    -2032.6119657162844305    -3.73e-01  3.58e-03  2.06e-01  3.53e-01  0.700  66.5
    3    -2032.7726090348305661    -1.61e-01  2.25e-03  1.49e-01  2.43e-01  0.700  49.2
                               ***Turning on AO-DIIS***
    4    -2032.8608132586459760    -8.82e-02  1.44e-03  1.07e-01  1.68e-01  0.700  44.1
    5    -2032.9233750056400822    -6.26e-02  1.02e-03  7.42e-02  1.16e-01  0.700  61.1
    6    -2032.9669394431948604    -4.36e-02  7.37e-04  5.23e-02  8.15e-02  0.700  43.8
    7    -2032.9973519471568579    -3.04e-02  1.75e-03  1.24e-01  5.70e-02  0.000  63.6
                              *** Initializing SOSCF ***
---------------------------------------S-O-S-C-F--------------------------------------
Iteration    Energy (Eh)           Delta-E    RMSDP     MaxDP     MaxGrad    Time(sec)
--------------------------------------------------------------------------------------
    8    -2033.0681618487506057    -7.08e-02  6.27e-05  2.34e-03  6.61e-04    92.0
               *** Restarting incremental Fock matrix formation ***
    9    -2033.0681753658545858    -1.35e-05  7.27e-05  2.75e-03  3.06e-04    88.9
   10    -2033.0681640932989467     1.13e-05  2.17e-05  2.01e-03  8.15e-04    85.3
   11    -2033.0681799177282301    -1.58e-05  2.25e-05  1.19e-03  2.21e-04    91.0
   12    -2033.0681766331108520     3.28e-06  1.26e-05  7.79e-04  3.52e-04    76.1
   13    -2033.0681807164701240    -4.08e-06  2.12e-05  6.81e-04  5.49e-05    73.2
   14    -2033.0681802970611898     4.19e-07  9.24e-06  2.90e-04  8.41e-05    89.3
   15    -2033.0681810786290953    -7.82e-07  1.40e-05  6.49e-04  1.25e-05    64.8
   16    -2033.0681810459955159     3.26e-08  7.93e-06  2.47e-04  1.77e-05    67.8
   17    -2033.0681812209040800    -1.75e-07  1.43e-05  6.31e-04  1.89e-06    79.5
                  *** Gradient check signals convergence ***

               *****************************************************
               *                     SUCCESS                       *
               *           SCF CONVERGED AFTER  17 CYCLES          *
               *****************************************************

             **** ENERGY FILE WAS UPDATED (tddft.en.tmp) ****

----------------
TOTAL SCF ENERGY
----------------

Total Energy       :      -2033.06818118425508 Eh          -55322.59776 eV

Components:
Nuclear Repulsion  :       6002.79724991269450 Eh          163344.41744 eV
Electronic Energy  :      -8035.85464649310416 Eh         -218666.72173 eV
One Electron Energy:     -14754.50703512979999 Eh         -401490.54781 eV
Two Electron Energy:       6718.65238863669583 Eh          182823.82608 eV
CPCM Dielectric    :         -0.01078460384542 Eh              -0.29346 eV

Virial components:
Potential Energy   :      -3978.98396948645131 Eh         -108273.65834 eV
Kinetic Energy     :       1945.91578830219601 Eh           52951.06058 eV
Virial Ratio       :          2.04478734044195

DFT components:
N(Alpha)           :      168.999986570684 electrons
N(Beta)            :      168.999986570684 electrons
N(Total)           :      337.999973141369 electrons
E(X)               :     -278.097066657499 Eh       
E(C)               :      -11.606229660125 Eh       
E(XC)              :     -289.703296317625 Eh       

CPCM Solvation Model Properties:
Surface-charge          :         -0.04918211953725
Corrected charge        :          0.00000000000000
Outlying charge corr.   :          0.00005516201059 Eh               0.00150 eV
Free-energy (cav+disp)  :  This term is not implemented in the current solvation scheme

---------------
SCF CONVERGENCE
---------------

  Last Energy change         ...    1.7491e-07  Tolerance :   1.0000e-08
  Last MAX-Density change    ...    6.3128e-04  Tolerance :   1.0000e-07
  Last RMS-Density change    ...    1.4298e-05  Tolerance :   5.0000e-09
  Last DIIS Error            ...    6.6117e-04  Tolerance :   5.0000e-07
  Last Orbital Gradient      ...    1.8887e-06  Tolerance :   1.0000e-05
  Last Orbital Rotation      ...    6.0202e-06  Tolerance :   1.0000e-05


----------------
ORBITAL ENERGIES
----------------

  NO   OCC          E(Eh)            E(eV) 
   0   2.0000     -14.131990      -384.5510 
   1   2.0000     -14.131987      -384.5509 
   2   2.0000     -14.131983      -384.5508 
   3   2.0000     -14.131980      -384.5507 
   4   2.0000     -10.023626      -272.7567 
   5   2.0000     -10.023615      -272.7564 
   6   2.0000     -10.023612      -272.7563 
   7   2.0000     -10.023604      -272.7561 
   8   2.0000     -10.023597      -272.7559 
   9   2.0000     -10.023594      -272.7559 
  10   2.0000     -10.023588      -272.7557 
  11   2.0000     -10.023587      -272.7557 
  12   2.0000     -10.008996      -272.3586 
  13   2.0000     -10.008976      -272.3581 
  14   2.0000     -10.008968      -272.3579 
  15   2.0000     -10.008965      -272.3578 
  16   2.0000     -10.002465      -272.1809 
  17   2.0000     -10.002454      -272.1806 
  18   2.0000     -10.002451      -272.1805 
  19   2.0000     -10.002449      -272.1805 
  20   2.0000      -9.990639      -271.8591 
  21   2.0000      -9.990636      -271.8590 
  22   2.0000      -9.990634      -271.8590 
  23   2.0000      -9.990631      -271.8589 
  24   2.0000      -9.990630      -271.8589 
  25   2.0000      -9.990627      -271.8588 
  26   2.0000      -9.990625      -271.8587 
  27   2.0000      -9.990623      -271.8587 
  28   2.0000      -9.990233      -271.8480 
  29   2.0000      -9.990230      -271.8480 
  30   2.0000      -9.990229      -271.8479 
  31   2.0000      -9.990226      -271.8479 
  32   2.0000      -9.990100      -271.8444 
  33   2.0000      -9.990099      -271.8444 
  34   2.0000      -9.990098      -271.8444 
  35   2.0000      -9.990094      -271.8443 
  36   2.0000      -9.989617      -271.8313 
  37   2.0000      -9.989613      -271.8312 
  38   2.0000      -9.989611      -271.8311 
  39   2.0000      -9.989610      -271.8311 
  40   2.0000      -9.985282      -271.7133 
  41   2.0000      -9.985276      -271.7132 
  42   2.0000      -9.985273      -271.7131 
  43   2.0000      -9.985272      -271.7131 
  44   2.0000      -9.984717      -271.6980 
  45   2.0000      -9.984712      -271.6978 
  46   2.0000      -9.984709      -271.6977 
  47   2.0000      -9.984707      -271.6977 
  48   2.0000      -3.821494      -103.9881 
  49   2.0000      -2.105713       -57.2994 
  50   2.0000      -2.105711       -57.2993 
  51   2.0000      -2.067020       -56.2465 
  52   2.0000      -0.913925       -24.8692 
  53   2.0000      -0.902908       -24.5694 
  54   2.0000      -0.902904       -24.5693 
  55   2.0000      -0.895374       -24.3644 
  56   2.0000      -0.810243       -22.0478 
  57   2.0000      -0.806298       -21.9405 
  58   2.0000      -0.806293       -21.9403 
  59   2.0000      -0.804649       -21.8956 
  60   2.0000      -0.769971       -20.9520 
  61   2.0000      -0.752761       -20.4837 
  62   2.0000      -0.752758       -20.4836 
  63   2.0000      -0.736970       -20.0540 
  64   2.0000      -0.718297       -19.5458 
  65   2.0000      -0.717899       -19.5350 
  66   2.0000      -0.717897       -19.5350 
  67   2.0000      -0.716281       -19.4910 
  68   2.0000      -0.694116       -18.8879 
  69   2.0000      -0.694105       -18.8876 
  70   2.0000      -0.694101       -18.8874 
  71   2.0000      -0.694099       -18.8874 
  72   2.0000      -0.689541       -18.7634 
  73   2.0000      -0.683148       -18.5894 
  74   2.0000      -0.683138       -18.5891 
  75   2.0000      -0.668583       -18.1931 
  76   2.0000      -0.659677       -17.9507 
  77   2.0000      -0.611736       -16.6462 
  78   2.0000      -0.611731       -16.6461 
  79   2.0000      -0.574463       -15.6319 
  80   2.0000      -0.560223       -15.2444 
  81   2.0000      -0.560175       -15.2431 
  82   2.0000      -0.560146       -15.2423 
  83   2.0000      -0.560126       -15.2418 
  84   2.0000      -0.556704       -15.1487 
  85   2.0000      -0.556641       -15.1470 
  86   2.0000      -0.550561       -14.9815 
  87   2.0000      -0.548571       -14.9274 
  88   2.0000      -0.540871       -14.7179 
  89   2.0000      -0.521187       -14.1822 
  90   2.0000      -0.521182       -14.1821 
  91   2.0000      -0.515677       -14.0323 
  92   2.0000      -0.511830       -13.9276 
  93   2.0000      -0.507880       -13.8201 
  94   2.0000      -0.494529       -13.4568 
  95   2.0000      -0.487542       -13.2667 
  96   2.0000      -0.487533       -13.2665 
  97   2.0000      -0.479310       -13.0427 
  98   2.0000      -0.476089       -12.9550 
  99   2.0000      -0.476074       -12.9546 
 100   2.0000      -0.462205       -12.5772 
 101   2.0000      -0.450243       -12.2517 
 102   2.0000      -0.450215       -12.2510 
 103   2.0000      -0.423707       -11.5297 
 104   2.0000      -0.418402       -11.3853 
 105   2.0000      -0.415618       -11.3096 
 106   2.0000      -0.415582       -11.3086 
 107   2.0000      -0.413274       -11.2458 
 108   2.0000      -0.413122       -11.2416 
 109   2.0000      -0.412861       -11.2345 
 110   2.0000      -0.411169       -11.1885 
 111   2.0000      -0.410162       -11.1611 
 112   2.0000      -0.390921       -10.6375 
 113   2.0000      -0.389562       -10.6005 
 114   2.0000      -0.388664       -10.5761 
 115   2.0000      -0.386960       -10.5297 
 116   2.0000      -0.386954       -10.5295 
 117   2.0000      -0.385153       -10.4805 
 118   2.0000      -0.382505       -10.4085 
 119   2.0000      -0.382497       -10.4083 
 120   2.0000      -0.381677       -10.3860 
 121   2.0000      -0.381051       -10.3689 
 122   2.0000      -0.380988       -10.3672 
 123   2.0000      -0.380987       -10.3672 
 124   2.0000      -0.372873       -10.1464 
 125   2.0000      -0.370588       -10.0842 
 126   2.0000      -0.365836        -9.9549 
 127   2.0000      -0.365651        -9.9499 
 128   2.0000      -0.365615        -9.9489 
 129   2.0000      -0.361488        -9.8366 
 130   2.0000      -0.346372        -9.4253 
 131   2.0000      -0.341340        -9.2883 
 132   2.0000      -0.341336        -9.2882 
 133   2.0000      -0.338047        -9.1987 
 134   2.0000      -0.331875        -9.0308 
 135   2.0000      -0.331866        -9.0305 
 136   2.0000      -0.328537        -8.9399 
 137   2.0000      -0.319873        -8.7042 
 138   2.0000      -0.314262        -8.5515 
 139   2.0000      -0.313163        -8.5216 
 140   2.0000      -0.310516        -8.4496 
 141   2.0000      -0.310506        -8.4493 
 142   2.0000      -0.310143        -8.4394 
 143   2.0000      -0.310127        -8.4390 
 144   2.0000      -0.309017        -8.4088 
 145   2.0000      -0.306147        -8.3307 
 146   2.0000      -0.294776        -8.0213 
 147   2.0000      -0.294755        -8.0207 
 148   2.0000      -0.288332        -7.8459 
 149   2.0000      -0.268891        -7.3169 
 150   2.0000      -0.268879        -7.3166 
 151   2.0000      -0.258401        -7.0314 
 152   2.0000      -0.258306        -7.0289 
 153   2.0000      -0.243539        -6.6270 
 154   2.0000      -0.241987        -6.5848 
 155   2.0000      -0.237443        -6.4612 
 156   2.0000      -0.236115        -6.4250 
 157   2.0000      -0.234392        -6.3781 
 158   2.0000      -0.234338        -6.3766 
 159   2.0000      -0.233600        -6.3566 
 160   2.0000      -0.232269        -6.3204 
 161   2.0000      -0.232229        -6.3193 
 162   2.0000      -0.230204        -6.2642 
 163   2.0000      -0.228248        -6.2110 
 164   2.0000      -0.209603        -5.7036 
 165   2.0000      -0.190323        -5.1790 
 166   2.0000      -0.190318        -5.1788 
 167   2.0000      -0.189737        -5.1630 
 168   2.0000      -0.186778        -5.0825 
 169   0.0000      -0.104233        -2.8363 
 170   0.0000      -0.104218        -2.8359 
 171   0.0000      -0.056091        -1.5263 
 172   0.0000      -0.042180        -1.1478 
 173   0.0000      -0.040913        -1.1133 
 174   0.0000      -0.040909        -1.1132 
 175   0.0000      -0.039845        -1.0842 
 176   0.0000      -0.039290        -1.0691 
 177   0.0000      -0.038631        -1.0512 
 178   0.0000      -0.037664        -1.0249 
 179   0.0000      -0.037635        -1.0241 
*Only the first 10 virtual orbitals were printed.

                    ********************************
                    * MULLIKEN POPULATION ANALYSIS *
                    ********************************

-----------------------
MULLIKEN ATOMIC CHARGES
-----------------------
   0 N :   -0.247140
   1 H :    0.139488
   2 C :   -0.218536
   3 C :   -0.218467
   4 N :   -0.247122
   5 C :   -0.218837
   6 H :    0.139549
   7 C :    0.234284
   8 N :   -0.247099
   9 C :   -0.218885
  10 C :    0.033406
  11 C :    0.234938
  12 N :   -0.247124
  13 C :   -0.218648
  14 C :    0.234626
  15 C :    0.234636
  16 C :    0.234970
  17 C :    0.234693
  18 C :   -0.218636
  19 C :    0.032896
  20 C :    0.033220
  21 C :   -0.218590
  22 C :    0.234627
  23 C :   -0.218497
  24 C :    0.032675
  25 C :    0.235004
  26 H :    0.139437
  27 H :    0.139519
  28 H :    0.139468
  29 H :    0.139616
  30 H :    0.139635
  31 H :    0.139473
  32 Pt:    0.147581
  33 C :   -0.069899
  34 C :   -0.129963
  35 C :   -0.151083
  36 C :   -0.077846
  37 C :   -0.151127
  38 C :   -0.129567
  39 H :    0.113123
  40 H :    0.115272
  41 H :    0.118796
  42 H :    0.115331
  43 H :    0.113143
  44 C :   -0.068244
  45 C :   -0.131264
  46 C :   -0.150376
  47 C :   -0.078303
  48 C :   -0.150184
  49 C :   -0.131314
  50 H :    0.113096
  51 H :    0.115350
  52 H :    0.118787
  53 H :    0.115337
  54 H :    0.113071
  55 C :   -0.070140
  56 C :   -0.129406
  57 C :   -0.151204
  58 C :   -0.077804
  59 C :   -0.151139
  60 C :   -0.129846
  61 H :    0.113110
  62 H :    0.115313
  63 H :    0.118783
  64 H :    0.115266
  65 H :    0.113132
  66 C :   -0.067080
  67 C :   -0.132692
  68 C :   -0.149370
  69 C :   -0.078820
  70 C :   -0.149575
  71 C :   -0.132579
  72 H :    0.113073
  73 H :    0.115400
  74 H :    0.118801
  75 H :    0.115402
  76 H :    0.113082
Sum of atomic charges:   -0.0000000

--------------------------------
MULLIKEN REDUCED ORBITAL CHARGES
--------------------------------
  0 N s       :     3.616064  s :     3.616064
      pz      :     1.373229  p :     3.541862
      px      :     1.088494
      py      :     1.080139
      dz2     :     0.005785  d :     0.084764
      dxz     :     0.014730
      dyz     :     0.016146
      dx2y2   :     0.022509
      dxy     :     0.025594
      f0      :     0.000758  f :     0.004450
      f+1     :     0.000489
      f-1     :     0.000469
      f+2     :     0.000271
      f-2     :     0.000625
      f+3     :     0.000722
      f-3     :     0.001116

  1 H s       :     0.840118  s :     0.840118
      pz      :     0.004807  p :     0.020394
      px      :     0.007688
      py      :     0.007899

  2 C s       :     3.311494  s :     3.311494
      pz      :     0.992257  p :     2.807904
      px      :     0.901395
      py      :     0.914252
      dz2     :     0.005785  d :     0.090998
      dxz     :     0.010376
      dyz     :     0.019304
      dx2y2   :     0.019698
      dxy     :     0.035835
      f0      :     0.001358  f :     0.008141
      f+1     :     0.000867
      f-1     :     0.000596
      f+2     :     0.001048
      f-2     :     0.000463
      f+3     :     0.002376
      f-3     :     0.001431

  3 C s       :     3.311389  s :     3.311389
      pz      :     0.991951  p :     2.807938
      px      :     0.913457
      py      :     0.902530
      dz2     :     0.005421  d :     0.090999
      dxz     :     0.019881
      dyz     :     0.010223
      dx2y2   :     0.019620
      dxy     :     0.035854
      f0      :     0.001405  f :     0.008141
      f+1     :     0.000513
      f-1     :     0.000872
      f+2     :     0.001095
      f-2     :     0.000459
      f+3     :     0.001405
      f-3     :     0.002392

  4 N s       :     3.616065  s :     3.616065
      pz      :     1.373280  p :     3.541839
      px      :     1.077574
      py      :     1.090984
      dz2     :     0.005744  d :     0.084767
      dxz     :     0.016443
      dyz     :     0.014476
      dx2y2   :     0.022494
      dxy     :     0.025610
      f0      :     0.000762  f :     0.004451
      f+1     :     0.000457
      f-1     :     0.000498
      f+2     :     0.000268
      f-2     :     0.000625
      f+3     :     0.001120
      f-3     :     0.000721

  5 C s       :     3.311696  s :     3.311696
      pz      :     0.992572  p :     2.808004
      px      :     0.915158
      py      :     0.900273
      dz2     :     0.005621  d :     0.090996
      dxz     :     0.017688
      dyz     :     0.012159
      dx2y2   :     0.019297
      dxy     :     0.036231
      f0      :     0.001389  f :     0.008140
      f+1     :     0.000579
      f-1     :     0.000832
      f+2     :     0.001379
      f-2     :     0.000158
      f+3     :     0.001503
      f-3     :     0.002300

  6 H s       :     0.840054  s :     0.840054
      pz      :     0.004848  p :     0.020397
      px      :     0.006341
      py      :     0.009208

  7 C s       :     3.181464  s :     3.181464
      pz      :     0.951730  p :     2.409131
      px      :     0.772834
      py      :     0.684567
      dz2     :     0.007278  d :     0.160505
      dxz     :     0.029614
      dyz     :     0.036319
      dx2y2   :     0.045343
      dxy     :     0.041951
      f0      :     0.002086  f :     0.014616
      f+1     :     0.000925
      f-1     :     0.001119
      f+2     :     0.000779
      f-2     :     0.002380
      f+3     :     0.003708
      f-3     :     0.003618

  8 N s       :     3.616033  s :     3.616033
      pz      :     1.373352  p :     3.541848
      px      :     1.077590
      py      :     1.090906
      dz2     :     0.005749  d :     0.084768
      dxz     :     0.016444
      dyz     :     0.014474
      dx2y2   :     0.022492
      dxy     :     0.025608
      f0      :     0.000762  f :     0.004451
      f+1     :     0.000457
      f-1     :     0.000498
      f+2     :     0.000268
      f-2     :     0.000625
      f+3     :     0.001120
      f-3     :     0.000721

  9 C s       :     3.311744  s :     3.311744
      pz      :     0.992547  p :     2.808007
      px      :     0.915200
      py      :     0.900260
      dz2     :     0.005635  d :     0.090994
      dxz     :     0.017695
      dyz     :     0.012148
      dx2y2   :     0.019293
      dxy     :     0.036222
      f0      :     0.001387  f :     0.008140
      f+1     :     0.000578
      f-1     :     0.000834
      f+2     :     0.001379
      f-2     :     0.000160
      f+3     :     0.001502
      f-3     :     0.002299

 10 C s       :     3.335717  s :     3.335717
      pz      :     0.965657  p :     2.492932
      px      :     0.745098
      py      :     0.782177
      dz2     :     0.003222  d :     0.127964
      dxz     :     0.023723
      dyz     :     0.025017
      dx2y2   :     0.030850
      dxy     :     0.045151
      f0      :     0.001534  f :     0.009981
      f+1     :     0.000748
      f-1     :     0.000767
      f+2     :     0.000956
      f-2     :     0.001161
      f+3     :     0.002814
      f-3     :     0.002002

 11 C s       :     3.181220  s :     3.181220
      pz      :     0.952306  p :     2.408689
      px      :     0.776106
      py      :     0.680277
      dz2     :     0.007316  d :     0.160537
      dxz     :     0.028575
      dyz     :     0.037265
      dx2y2   :     0.045512
      dxy     :     0.041869
      f0      :     0.002090  f :     0.014616
      f+1     :     0.000852
      f-1     :     0.001189
      f+2     :     0.001232
      f-2     :     0.001935
      f+3     :     0.002678
      f-3     :     0.004640

 12 N s       :     3.616032  s :     3.616032
      pz      :     1.373192  p :     3.541878
      px      :     1.088534
      py      :     1.080152
      dz2     :     0.005786  d :     0.084764
      dxz     :     0.014731
      dyz     :     0.016145
      dx2y2   :     0.022509
      dxy     :     0.025593
      f0      :     0.000758  f :     0.004450
      f+1     :     0.000489
      f-1     :     0.000469
      f+2     :     0.000271
      f-2     :     0.000625
      f+3     :     0.000722
      f-3     :     0.001116

 13 C s       :     3.311565  s :     3.311565
      pz      :     0.991990  p :     2.807971
      px      :     0.899673
      py      :     0.916308
      dz2     :     0.005587  d :     0.090972
      dxz     :     0.012565
      dyz     :     0.017353
      dx2y2   :     0.019339
      dxy     :     0.036129
      f0      :     0.001371  f :     0.008140
      f+1     :     0.000776
      f-1     :     0.000667
      f+2     :     0.001347
      f-2     :     0.000176
      f+3     :     0.002278
      f-3     :     0.001524

 14 C s       :     3.181089  s :     3.181089
      pz      :     0.952676  p :     2.409152
      px      :     0.682363
      py      :     0.774113
      dz2     :     0.007070  d :     0.160518
      dxz     :     0.037187
      dyz     :     0.029123
      dx2y2   :     0.045122
      dxy     :     0.042017
      f0      :     0.002116  f :     0.014616
      f+1     :     0.001066
      f-1     :     0.000935
      f+2     :     0.000808
      f-2     :     0.002349
      f+3     :     0.003638
      f-3     :     0.003704

 15 C s       :     3.181483  s :     3.181483
      pz      :     0.952516  p :     2.408723
      px      :     0.678284
      py      :     0.777924
      dz2     :     0.006972  d :     0.160542
      dxz     :     0.038167
      dyz     :     0.028188
      dx2y2   :     0.045306
      dxy     :     0.041908
      f0      :     0.002114  f :     0.014616
      f+1     :     0.001114
      f-1     :     0.000890
      f+2     :     0.001208
      f-2     :     0.001940
      f+3     :     0.004664
      f-3     :     0.002686

 16 C s       :     3.181210  s :     3.181210
      pz      :     0.952147  p :     2.408665
      px      :     0.776195
      py      :     0.680323
      dz2     :     0.007319  d :     0.160538
      dxz     :     0.028582
      dyz     :     0.037278
      dx2y2   :     0.045500
      dxy     :     0.041858
      f0      :     0.002091  f :     0.014616
      f+1     :     0.000851
      f-1     :     0.001189
      f+2     :     0.001232
      f-2     :     0.001935
      f+3     :     0.002679
      f-3     :     0.004639

 17 C s       :     3.181174  s :     3.181174
      pz      :     0.951800  p :     2.409010
      px      :     0.772953
      py      :     0.684257
      dz2     :     0.007282  d :     0.160508
      dxz     :     0.029606
      dyz     :     0.036322
      dx2y2   :     0.045343
      dxy     :     0.041955
      f0      :     0.002086  f :     0.014616
[...]
  0-1A  -> 26-1A    3.605261   29078.4   343.9   0.003861062   0.04371  -0.12940  -0.16335   0.01689
  0-1A  -> 27-1A    3.655877   29486.6   339.1   0.038283515   0.42743   0.50289  -0.41585   0.04001
  0-1A  -> 28-1A    3.656138   29488.7   339.1   0.038776950   0.43291   0.42103   0.50271  -0.05409
  0-1A  -> 29-1A    3.716438   29975.1   333.6   0.000004167   0.00005   0.00395   0.00543  -0.00078
  0-1A  -> 30-1A    3.755556   30290.6   330.1   0.128168269   1.39299   0.82543   0.83825  -0.09489

----------------------------------------------------------------------------------------------------
                     ABSORPTION SPECTRUM VIA TRANSITION VELOCITY DIPOLE MOMENTS    
----------------------------------------------------------------------------------------------------
     Transition      Energy     Energy  Wavelength fosc(P2)      P2        PX        PY        PZ   
                      (eV)      (cm-1)    (nm)                 (au**2)    (au)      (au)      (au)  
----------------------------------------------------------------------------------------------------
  0-1A  ->  1-1A    2.388637   19265.7   519.1   0.000000001   0.00000  -0.00000   0.00001   0.00000
  0-1A  ->  2-1A    2.410100   19438.8   514.4   0.000011022   0.00000   0.00101  -0.00057  -0.00034
  0-1A  ->  3-1A    2.410167   19439.3   514.4   0.000025889   0.00000  -0.00107  -0.00151   0.00014
  0-1A  ->  4-1A    2.431685   19612.9   509.9   0.000000005   0.00000   0.00001   0.00002  -0.00001
  0-1A  ->  5-1A    2.450081   19761.2   506.0   0.000000014   0.00000   0.00003  -0.00002  -0.00003
  0-1A  ->  6-1A    2.710346   21860.4   457.4   0.000000004   0.00000   0.00001   0.00002   0.00000
  0-1A  ->  7-1A    2.878467   23216.4   430.7   0.000000077   0.00000   0.00008  -0.00008   0.00000
  0-1A  ->  8-1A    2.878861   23219.6   430.7   0.000000014   0.00000  -0.00001   0.00005  -0.00000
  0-1A  ->  9-1A    3.011940   24292.9   411.6   1.120142266   0.18598   0.35122   0.24842  -0.03017
  0-1A  -> 10-1A    3.012260   24295.5   411.6   1.114931645   0.18513   0.24913  -0.34968   0.02815
  0-1A  -> 11-1A    3.430196   27666.4   361.4   0.000005278   0.00000  -0.00024  -0.00097   0.00009
  0-1A  -> 12-1A    3.430269   27667.0   361.4   0.000010025   0.00000   0.00122  -0.00064   0.00003
  0-1A  -> 13-1A    3.456745   27880.5   358.7   0.036690125   0.00699   0.06536  -0.05207   0.00293
  0-1A  -> 14-1A    3.457348   27885.4   358.6   0.038797950   0.00739  -0.05356  -0.06686   0.00742
  0-1A  -> 15-1A    3.483310   28094.8   355.9   0.000012596   0.00000  -0.00127  -0.00060  -0.00067
  0-1A  -> 16-1A    3.485208   28110.1   355.7   0.000348513   0.00007   0.00154   0.00590  -0.00545
  0-1A  -> 17-1A    3.486420   28119.9   355.6   0.002290272   0.00044  -0.01298   0.00194  -0.01637
  0-1A  -> 18-1A    3.490162   28150.1   355.2   0.003562837   0.00069  -0.01851   0.01690  -0.00757
  0-1A  -> 19-1A    3.523106   28415.8   351.9   0.000033261   0.00001  -0.00181   0.00178  -0.00019
  0-1A  -> 20-1A    3.523463   28418.6   351.9   0.000015003   0.00000  -0.00129  -0.00111   0.00009
  0-1A  -> 21-1A    3.544564   28588.8   349.8   0.000000358   0.00000  -0.00015   0.00005   0.00021
  0-1A  -> 22-1A    3.545974   28600.2   349.6   0.000004361   0.00000   0.00070  -0.00059   0.00007
  0-1A  -> 23-1A    3.552314   28651.3   349.0   0.000000014   0.00000  -0.00003   0.00002  -0.00004
  0-1A  -> 24-1A    3.556736   28687.0   348.6   0.000000019   0.00000  -0.00005  -0.00003  -0.00002
  0-1A  -> 25-1A    3.604955   29075.9   343.9   0.003657216   0.00073   0.02115  -0.01649   0.00276
  0-1A  -> 26-1A    3.605261   29078.4   343.9   0.003600979   0.00072   0.01656   0.02090  -0.00214
  0-1A  -> 27-1A    3.655877   29486.6   339.1   0.036751832   0.00741  -0.06620   0.05474  -0.00527
  0-1A  -> 28-1A    3.656138   29488.7   339.1   0.037230820   0.00750  -0.05543  -0.06618   0.00712
  0-1A  -> 29-1A    3.716438   29975.1   333.6   0.000003900   0.00000  -0.00052  -0.00072   0.00004
  0-1A  -> 30-1A    3.755556   30290.6   330.1   0.122030013   0.02526  -0.11117  -0.11287   0.01281

------------------------------------------------------------------------------------------
                     CD SPECTRUM VIA TRANSITION ELECTRIC DIPOLE MOMENTS    
------------------------------------------------------------------------------------------
     Transition      Energy     Energy  Wavelength    R        MX        MY        MZ   
                      (eV)      (cm-1)    (nm)   (1e40*cgs)   (au)      (au)      (au)  
------------------------------------------------------------------------------------------
  0-1A  ->  1-1A    2.388637   19265.7   519.1    0.02648   0.01992   0.10546   1.11074
  0-1A  ->  2-1A    2.410100   19438.8   514.4   -0.01063  -0.00030   0.00058   0.00246
  0-1A  ->  3-1A    2.410167   19439.3   514.4    0.00245  -0.00015  -0.00004   0.00052
  0-1A  ->  4-1A    2.431685   19612.9   509.9   -0.00012  -0.00055  -0.00059   0.00095
  0-1A  ->  5-1A    2.450081   19761.2   506.0    0.00001  -0.00065   0.00030  -0.00354
  0-1A  ->  6-1A    2.710346   21860.4   457.4    0.00011   0.00058   0.00076  -0.00009
  0-1A  ->  7-1A    2.878467   23216.4   430.7    0.07054   0.10461  -0.09149   0.00522
  0-1A  ->  8-1A    2.878861   23219.6   430.7   -0.01992  -0.09156  -0.10400   0.01166
  0-1A  ->  9-1A    3.011940   24292.9   411.6    0.80786  -0.00004   0.00079  -0.00007
  0-1A  -> 10-1A    3.012260   24295.5   411.6   -2.12149  -0.00108   0.00063   0.00011
  0-1A  -> 11-1A    3.430196   27666.4   361.4   -0.33354   0.09552   0.06546  -0.00977
  0-1A  -> 12-1A    3.430269   27667.0   361.4    0.54699   0.06641  -0.09625   0.00358
  0-1A  -> 13-1A    3.456745   27880.5   358.7    0.62445   0.00141  -0.00135   0.00046
  0-1A  -> 14-1A    3.457348   27885.4   358.6   -0.09686   0.00033   0.00011  -0.00001
  0-1A  -> 15-1A    3.483310   28094.8   355.9    0.00108  -0.00018  -0.00008  -0.00002
  0-1A  -> 16-1A    3.485208   28110.1   355.7    0.02248   0.00064   0.00070  -0.00015
  0-1A  -> 17-1A    3.486420   28119.9   355.6   -0.02649  -0.00007  -0.00047   0.00044
  0-1A  -> 18-1A    3.490162   28150.1   355.2   -0.04645   0.00083  -0.00074  -0.00211
  0-1A  -> 19-1A    3.523106   28415.8   351.9    0.84051  -0.07460   0.04631  -0.04203
  0-1A  -> 20-1A    3.523463   28418.6   351.9   -0.58372   0.05326   0.07791  -0.00784
  0-1A  -> 21-1A    3.544564   28588.8   349.8   -0.15428   0.01188  -0.02768  -0.19412
  0-1A  -> 22-1A    3.545974   28600.2   349.6    0.05061   0.01748  -0.03799  -0.24693
  0-1A  -> 23-1A    3.552314   28651.3   349.0   -0.00013  -0.00323  -0.00257   0.00303
  0-1A  -> 24-1A    3.556736   28687.0   348.6   -0.00163   0.00479   0.00695  -0.00079
  0-1A  -> 25-1A    3.604955   29075.9   343.9    0.26694   0.00201  -0.00182  -0.00005
  0-1A  -> 26-1A    3.605261   29078.4   343.9   -0.19690  -0.00134  -0.00147   0.00019
  0-1A  -> 27-1A    3.655877   29486.6   339.1    0.50665  -0.00126   0.00102  -0.00040
  0-1A  -> 28-1A    3.656138   29488.7   339.1   -0.34329   0.00075   0.00082  -0.00004
  0-1A  -> 29-1A    3.716438   29975.1   333.6   -0.00247   0.00034   0.00066  -0.00036
  0-1A  -> 30-1A    3.755556   30290.6   330.1   -0.23183   0.00006   0.00052  -0.00014

------------------------------------------------------------------------------------------
                     CD SPECTRUM VIA TRANSITION VELOCITY DIPOLE MOMENTS    
------------------------------------------------------------------------------------------
     Transition      Energy     Energy  Wavelength    R        MX        MY        MZ   
                      (eV)      (cm-1)    (nm)   (1e40*cgs)   (au)      (au)      (au)  
------------------------------------------------------------------------------------------
  0-1A  ->  1-1A    2.388637   19265.7   519.1    0.02094   0.01992   0.10546   1.11074
  0-1A  ->  2-1A    2.410100   19438.8   514.4   -0.00783  -0.00030   0.00058   0.00246
  0-1A  ->  3-1A    2.410167   19439.3   514.4    0.00152  -0.00015  -0.00004   0.00052
  0-1A  ->  4-1A    2.431685   19612.9   509.9   -0.00014  -0.00055  -0.00059   0.00095
  0-1A  ->  5-1A    2.450081   19761.2   506.0    0.00042  -0.00065   0.00030  -0.00354
  0-1A  ->  6-1A    2.710346   21860.4   457.4    0.00011   0.00058   0.00076  -0.00009
  0-1A  ->  7-1A    2.878467   23216.4   430.7    0.06834   0.10461  -0.09149   0.00522
  0-1A  ->  8-1A    2.878861   23219.6   430.7   -0.01795  -0.09156  -0.10400   0.01166
  0-1A  ->  9-1A    3.011940   24292.9   411.6    0.79003  -0.00004   0.00079  -0.00007
  0-1A  -> 10-1A    3.012260   24295.5   411.6   -2.07398  -0.00108   0.00063   0.00011
  0-1A  -> 11-1A    3.430196   27666.4   361.4   -0.32460   0.09552   0.06546  -0.00977
  0-1A  -> 12-1A    3.430269   27667.0   361.4    0.53401   0.06641  -0.09625   0.00358
  0-1A  -> 13-1A    3.456745   27880.5   358.7    0.60683   0.00141  -0.00135   0.00046
  0-1A  -> 14-1A    3.457348   27885.4   358.6   -0.09420   0.00033   0.00011  -0.00001
  0-1A  -> 15-1A    3.483310   28094.8   355.9    0.00106  -0.00018  -0.00008  -0.00002
  0-1A  -> 16-1A    3.485208   28110.1   355.7    0.02194   0.00064   0.00070  -0.00015
  0-1A  -> 17-1A    3.486420   28119.9   355.6   -0.02647  -0.00007  -0.00047   0.00044
  0-1A  -> 18-1A    3.490162   28150.1   355.2   -0.04375   0.00083  -0.00074  -0.00211
  0-1A  -> 19-1A    3.523106   28415.8   351.9    0.81939  -0.07460   0.04631  -0.04203
  0-1A  -> 20-1A    3.523463   28418.6   351.9   -0.56851   0.05326   0.07791  -0.00784
  0-1A  -> 21-1A    3.544564   28588.8   349.8   -0.15809   0.01188  -0.02768  -0.19412
  0-1A  -> 22-1A    3.545974   28600.2   349.6    0.05976   0.01748  -0.03799  -0.24693
  0-1A  -> 23-1A    3.552314   28651.3   349.0   -0.00024  -0.00323  -0.00257   0.00303
  0-1A  -> 24-1A    3.556736   28687.0   348.6   -0.00151   0.00479   0.00695  -0.00079
  0-1A  -> 25-1A    3.604955   29075.9   343.9    0.25759   0.00201  -0.00182  -0.00005
  0-1A  -> 26-1A    3.605261   29078.4   343.9   -0.19015  -0.00134  -0.00147   0.00019
  0-1A  -> 27-1A    3.655877   29486.6   339.1    0.49642  -0.00126   0.00102  -0.00040
  0-1A  -> 28-1A    3.656138   29488.7   339.1   -0.33638   0.00075   0.00082  -0.00004
  0-1A  -> 29-1A    3.716438   29975.1   333.6   -0.00233   0.00034   0.00066  -0.00036
  0-1A  -> 30-1A    3.755556   30290.6   330.1   -0.22619   0.00006   0.00052  -0.00014

Total run time:     7884.572 sec

           *** ORCA-CIS/TD-DFT FINISHED WITHOUT ERROR ***
-----------------------
CIS/TD-DFT TOTAL ENERGY
-----------------------

    E(SCF)  =  -2033.068181184 Eh
    DE(CIS) =      0.087780815 Eh (Root  1)
    ----------------------------- ---------
    E(tot)  =  -2032.980400369 Eh


Maximum memory used throughout the entire CIS-calculation: 2982.9 MB
=> NOW LEAVING ORCA_CIS

-------------------------   --------------------
FINAL SINGLE POINT ENERGY     -2032.980400369240
-------------------------   --------------------



           ************************************************************
           *        Program running with 8 parallel MPI-processes     *
           *              working on a common directory               *
           ************************************************************

------------------------------------------------------------------------------
                              ORCA PROPERTY CALCULATIONS
------------------------------------------------------------------------------

GBWName                                 ... tddft.gbw
Number of atoms                         ...     77
Number of basis functions               ...   1696
Max core memory                         ...   3000 MB

Electric properties:
Dipole moment                           ... YES
Quadrupole moment                       ...  NO
Static polarizability (Dipole/Dipole)   ...  NO
Static polarizability (Dipole/Quad.)    ...  NO
Static polarizability (Quad./Quad.)     ...  NO
Static polarizability (Velocity)        ...  NO
Static hyperpolarizability              ...  NO

Atomic electric properties:
Dipole moment                           ...  NO
Quadrupole moment                       ...  NO
Static polarizability                   ...  NO

Choice of electric origin               ... Center of mass
Position of electric origin             ...    -0.159740     5.088996     6.548052

General magnetic properties:
Magnetizability                         ...  NO

EPR properties:
g-Tensor (aka g-matrix)                 ...  NO
Zero-Field splitting spin-orbit         ...  NO
Zero-field splitting spin-spin          ...  NO
Hyperfine couplings                     ...  NO (   0 nuclei)
Quadrupole couplings                    ...  NO (   0 nuclei)
Contact density                         ...  NO (   0 nuclei)

NMR properties:
Chemical shifts                         ...  NO (   0 nuclei)
Spin-rotation constants                 ...  NO (   0 nuclei)
Spin-spin couplings                     ...  NO (   0 nuclei,    0 pairs)

Choice of magnetic origin               ... GIAO
Position of magnetic origin             ...     0.000000     0.000000     0.000000

Properties with geometric perturbations:
SCF Hessian                             ...  NO
IR spectrum                             ...  NO
VCD spectrum                            ...  NO
X-ray spectroscopy properties:
SCF XES/XAS/RIXS spectra                ...  NO

SCF SOC stabilization energy            ...  NO
Diagonal Born-Oppenheimer correction    ...  NO

-------------
DIPOLE MOMENT
-------------

Method             : SCF
Type of density    : Electron Density
Multiplicity       :   1
Irrep              :   0
Energy             : -2033.0681811842550815 Eh
Basis              : AO
                                X                 Y                 Z
Electronic contribution:     -0.007154554       0.005815035       0.030290968
Nuclear contribution   :      0.007463989      -0.005700084      -0.030643895
                        -----------------------------------------
Total Dipole Moment    :      0.000309434       0.000114951      -0.000352927
                        -----------------------------------------
Magnitude (a.u.)       :      0.000483240
Magnitude (Debye)      :      0.001228299



--------------------
Rotational spectrum 
--------------------
 
Rotational constants in cm-1:             0.001952             0.001952             0.001017 
Rotational constants in MHz :            58.530984            58.525184            30.503212 

Dipole components along the rotational axes: 
x,y,z [a.u.] :     0.000051     0.000345    -0.000335 
x,y,z [Debye]:     0.000129     0.000877    -0.000851 

 

Dipole moment calculation done in   0.3 sec 

Maximum memory used throughout the entire PROP-calculation: 233.3 MB

--------------------------------
SUGGESTED CITATIONS FOR THIS RUN
--------------------------------

Below you find a list of papers that are relevant to this ORCA run
We neither can nor want to force you to cite these papers, but we appreciate if you do
You receive ORCA, which is the product of decades of hard work by many enthusiastic individuals, for free
The only thing we kindly ask in return is that you cite our papers,
We deeply appreciate it, if you show your appreciation for ORCA by not just citing the generic ORCA reference.

Please note that relegating all ORCA citations to the supporting information does *not* help us.
SI sections are not indexed - citations you put there will not count into any citation statistics
But we need these citations in order to attract the funding resources that allow us to do what we are doing

Therefore, if you are a happy ORCA user, please consider citing a few of the papers listed below in the main body of your paper

In addition to the list printed below, the program has created the file tddft.bibtex that contains the list in bibtex format
You can import this file easily into all common literature databanks and citation aid programs

It goes without saying that in many instances, there are alternative algorithms to achieve similar
results as the ones you have gotten from ORCA. It is, of course, also the case that in some instances
ORCA just re-implements algorithms worked out by others. We are fully aware of that and we are also
fully appreciative of our colleagues work. Hence this citation list should not be read as indicating
that the listed papers, which are focused on our own work, are the only ones worth citing. It simply
meant to make it easier for users to cite ORCA specific papers. It is not a substitute for doing your
own literature research and citing the relevant literature in a scientifically appropriate manner.

List of essential papers. We consider these as the minimum necessary citations

  1. Neese, F.
     Software update: the ORCA program system, version 6.0
     WIRES Comput. Molec. Sci. 2025 15(1), e70019
     doi.org/10.1002/wcms.70019

List of papers to cite with high priority. The work reported in these papers was absolutely
necessary for this run to complete.
Our perspective: the developers of density functionals and basis sets usually get cited in chemistry papers
Good! But without the algorithms to do something with them, the functionals or basis sets would not do anything.
Hence, in our opinion, the algorithm design and method developments papers are equally worthy of getting cited

  1. Neese, F.; Olbrich, G.
     Efficient use of the resolution of the identity approximation in time-dependent density functional calculations with hybrid density functionals
     Chem. Phys. Lett. 2002 362 , 170-178
     doi.org/10.1016/s0009-2614(02)01053-9
  2. Neese, F.
     An improvement of the resolution of the identity approximation for the formation of the Coulomb matrix
     J. Comp. Chem. 2003 24(14), 1740-1747
     doi.org/10.1002/jcc.10318
  3. Garcia-Rates, M.; Neese, F.
     Effect of the Solute Cavity on the Solvation Energy and its Derivatives within the Framework of the Gaussian Charge Scheme
     J. Comput. Chem. 2020 41 , 922-939
     doi.org/10.1002/jcc.26139
  4. Neese, F.
     The SHARK Integral Generation and Digestion System
     J. Comp. Chem. 2022 44(3), 381
     doi.org/10.1002/jcc.26942

List of suggested additional citations. These are papers that are important in the 'surrounding' of 
of this run, or papers that preceded the highly important papers. If you like your results we are grateful for a citation.

  1. Neese, F.
     The ORCA program system
     WIRES Comput. Molec. Sci. 2012 2(1), 73-78
     doi.org/10.1002/wcms.81
  2. Neese, F.
     Software update: the ORCA program system, version 4.0
     WIRES Comput. Molec. Sci. 2018 8(1), 1-6
     doi.org/10.1002/wcms.1327
  3. Neese, F.; Wennmohs, F.; Becker, U.; Riplinger, C.
     The ORCA quantum chemistry program package
     J. Chem. Phys. 2020 152(22), 224108
     doi.org/10.1063/5.0004608
  4. Neese, F.
     Software update: The ORCA program system—Version 5.0
     WIRES Comput. Molec. Sci. 2022 12(1), e1606
     doi.org/10.1002/wcms.1606

List of optional additional citations

  1. Neese, F.
     Approximate second-order SCF convergence for spin unrestricted wavefunctions
     Chem. Phys. Lett. 2000 325(1-3), 93-98
     doi.org/10.1016/s0009-2614(00)00662-x

Timings for individual modules:

Sum of individual times          ...     9270.918 sec (= 154.515 min)
Startup calculation              ...       50.130 sec (=   0.836 min)   0.5 %
SCF iterations                   ...     1318.507 sec (=  21.975 min)  14.2 %
Property integrals               ...        7.534 sec (=   0.126 min)   0.1 %
Property calculations            ...        2.257 sec (=   0.038 min)   0.0 %
CIS module                       ...     7892.489 sec (= 131.541 min)  85.1 %
                             ****ORCA TERMINATED NORMALLY****
TOTAL RUN TIME: 0 days 2 hours 34 minutes 31 seconds 572 msec
