
                                 *****************
                                 * O   R   C   A *
                                 *****************

                                            #,                                       
                                            ###                                      
                                            ####                                     
                                            #####                                    
                                            ######                                   
                                           ########,                                 
                                     ,,################,,,,,                         
                               ,,#################################,,                 
                          ,,##########################################,,             
                       ,#########################################, ''#####,          
                    ,#############################################,,   '####,        
                  ,##################################################,,,,####,       
                ,###########''''           ''''###############################       
              ,#####''   ,,,,##########,,,,          '''####'''          '####       
            ,##' ,,,,###########################,,,                        '##       
           ' ,,###''''                  '''############,,,                           
         ,,##''                                '''############,,,,        ,,,,,,###''
      ,#''                                            '''#######################'''  
     '                                                          ''''####''''         
             ,#######,   #######,   ,#######,      ##                                
            ,#'     '#,  ##    ##  ,#'     '#,    #''#        ,####,    ,#,          
            ##       ##  ##   ,#'  ##            #'  '#       #'       ,# #          
            ##       ##  #######   ##           ,######,      #####,      #          
            '#,     ,#'  ##    ##  '#,     ,#' ,#      #,     #,   #      #          
             '#######'   ##     ##  '#######'  #'      '#     '####' #    #          



                #########################################################
                #                        -***-                          #
                #          Department of theory and spectroscopy        #
                #                                                       #
                #                      Frank Neese                      #
                #                                                       #
                #     Directorship, Architecture, Infrastructure        #
                #                    SHARK, DRIVERS                     #
                #        Core code/Algorithms in most modules           #
                #                                                       #
                #        Max Planck Institute fuer Kohlenforschung      #
                #                Kaiser Wilhelm Platz 1                 #
                #                 D-45470 Muelheim/Ruhr                 #
                #                      Germany                          #
                #                                                       #
                #                  All rights reserved                  #
                #                        -***-                          #
                #########################################################


                         Program Version 6.1.1  -  RELEASE   -
                                (GIT: $487d211c$)
                          ($2025-11-21 10:33:24 +0100$)


 With contributions from (in alphabetic order):
[Max-Planck-Institut fuer Kohlenforschung]                               
  Daniel Aravena         : Magnetic Suceptibility                        
  Michael Atanasov       : Ab Initio Ligand Field Theory (pilot matlab implementation)
  Alexander A. Auer      : GIAO ZORA, VPT2 properties, NMR spectrum      
  Ute Becker             : All parallelization in ORCA, NUMFREQ, NUMCALC 
  Giovanni Bistoni       : ED, misc. LED, open-shell LED, HFLD           
  Dmytro Bykov           : pre 5.0 version of the SCF Hessian            
  Marcos Casanova-Páez   : Triplet and SCS-CIS(D). UHF-(DLPNO)-IP/EA/STEOM-CCSD. UHF-CVS-IP/STEOM-CCSD   
  Vijay G. Chilkuri      : MRCI spin determinant printing, contributions to CSF-ICE 
  Pauline Colinet        : FMM embedding                                 
  Dipayan Datta          : RHF DLPNO-CCSD density                        
  Achintya Kumar Dutta   : EOM-CC, STEOM-CC                              
  Nicolas Foglia         : Exact transition moments, OPA infrastructure, MCD improvements    
  Dmitry Ganyushin       : Spin-Orbit,Spin-Spin,Magnetic field MRCI      
  Miquel Garcia-Rates    : C-PCM and meta-GGA Hessian, CCSD/C-PCM, Gaussian charge scheme 
  Tiago L. C. Gouveia    : GS-ROHF, GS-ROCIS                             
  Yang Guo               : DLPNO-NEVPT2, F12-NEVPT2, CIM, IAO-localization        
  Andreas Hansen         : Spin unrestricted coupled pair/coupled cluster methods 
  Ingolf Harden          : AUTO-CI MPn and infrastructure                
  Benjamin Helmich-Paris : MC-RPA, TRAH-(SCF,CASSCF), AVAS, COSX integrals, SCF dyn. polar., MC-PDFT, srDFT 
  Lee Huntington         : MR-EOM, pCC                                   
  Robert Izsak           : Overlap fitted RIJCOSX, COSX-SCS-MP3, EOM     
  Riya Kayal             : Wick's Theorem for AUTO-CI, AUTO-CI UHF-CCSDT 
  Emily Kempfer          : AUTO-CI RHF CISDT and CCSDT, approximate NEVPT4
  Christian Kollmar      : KDIIS, OOCD, Brueckner-CCSD(T), CCSD density, CASPT2, CASPT2-K, improved NEVPT2 
  Axel Koslowski         : Symmetry handling                             
  Simone Kossmann        : meta-GGA functionals, TD-DFT gradient, OOMP2, (MP2 Hessian; deprecated post 5.0) 
  Lucas Lang             : DCDCAS, Hyperfine gauge corrections, ICE-SOC+SSC
  Marvin Lechner         : AUTO-CI (C++ implementation), FIC-MRCC        
  Spencer Leger          : CASSCF response                               
  Dagmar Lenk            : GEPOL surface, SMD, ORCA-2-JSON               
  Dimitrios Liakos       : Extrapolation schemes; Compound Job, Property file
  Dimitrios Manganas     : Further ROCIS development; embedding schemes. LFT, Crystal Embedding 
  Dimitrios Pantazis     : SARC Basis sets                               
  Anastasios Papadopoulos: AUTO-CI, single reference methods and gradients 
  Taras Petrenko         : pre 6.0 DFT Hessian and TD-DFT gradient,  ECA, NRVS 
  Petra Pikulova         : Analytic Raman intensities                    
  Peter Pinski           : DLPNO-MP2, DLPNO-MP2 Gradient                 
  Shashank Vittal Rao    : ES-AILFT, MagRelax                            
  Christoph Reimann      : Effective Core Potentials                     
  Marius Retegan         : Local ZFS, SOC                                
  Christoph Riplinger    : Optimizer, TS searches, QM/MM, DLPNO-CCSD(T), (RO)-DLPNO pert. Triples 
  Michael Roemelt        : Original ROCIS implementation, recursive CI coupling coefficients
  Masaaki Saitow         : Open-shell DLPNO-CCSD energy and density      
  Barbara Sandhoefer     : DKH picture change effects                    
  Yorick L. A. Schmerwitz: GMF and freeze-and-release deltaSCF, NEB S-IDPP initial path                    
  Kantharuban Sivalingam : CASSCF convergence/infrastructure, NEVPT2, NEVPT3, NEVPT4(SD), FIC-MRCI and CEPA variants
  Bernardo de Souza      : ESD, SOC TD-DFT                               
  Georgi L. Stoychev     : AutoAux, RI-MP2 NMR, DLPNO-MP2 response, X2C  
  Van Anh Tran           : RI-MP2 g-tensors                              
  Willem Van den Heuvel  : Paramagnetic NMR                              
  Zikuan Wang            : NOTCH, Electric field optimization            
  Frank Wennmohs         : Technical directorship and infrastructure     
  Hang Xu                : AUTO-CI-Response properties                   
                                                                         
[FACCTs GmbH]                                                            
  Markus Bursch, Nicolas Foglia, Miquel Garcia-Rates, Ingolf Harden, Hagen Neugebauer, Anastasios Papadopoulos, 
  Christoph Riplinger, Bernardo de Souza, Georgi L. Stoychev                                                    
                                                                 
  APM, various basis sets, CI-OPT, improved COSX, DLPNO-Multilevel,           
  DOCKER, DRACO, updates on ESD, Fragmentator, GOAT, IRC, LR-CPCM, L-BFGS, MBIS, meta-GGA TD-DFT gradient, ML-optimized integration grids, 
  MM, NACMEs, nearIR, NEB, NEB-TS, NL-DFT gradient (VV10), 2- and 3-layer-ONIOM, interface openCOSMO-RS, QMMM,   
  Crystal-QMMM, RESP, rigid body optimization, SF, symmetry and pop. for TD-DFT, various functionals, SOLVATOR                                   
                                                                         
[Other institutions]                                                     
  V. Asgeirsson          : NEB                                           
  Christoph Bannwarth    : sTDA-DFT, sTD-DFT, PBEh-3c, B97-3c, D3        
  Giovanni Bistoni       : ETS/NOCV, ADLD/ADEX, COVALED                  
  Martin Brehm           : Molecular dynamics                            
  Ronald Cardenas        : ETS/NOCV                                      
  Martina Colucci        : COVALED                                       
  Sebastian Ehlert       : rSCAN, r2SCAN, r2SCAN-3c, D4, dhf basis sets  
  Marvin Friede          : D4 for Fr, Ra, Ac-Lr                          
  Lars Goerigk           : TD-DFT with DH, B97 family of functionals     
  Stefan Grimme          : VdW corrections, initial TS optimization, DFT functionals, gCP, sTDA/sTD-DF 
  Waldemar Hujo          : DFT-NL                                        
  H. Jonsson             : NEB                                           
  Holger Kruse           : gCP                                           
  Marcel Mueller         : wB97X-3c, vDZP basis set                      
  Hagen Neugebauer       : wr2SCAN, Native XTB                           
  Gianluca Regni         : ADLD/ADEX                                     
  Tobias Risthaus        : pre 6.0 range-separated hybrid DFT and stability analysis
  Lukas Wittmann         : regularized MP2, r2SCAN double-hybrids, wr2SCAN        
                                                                         
We gratefully acknowledge several colleagues who have allowed us to      
interface, adapt or use parts of their codes:                            
  Ed Valeev, F. Pavosevic, A. Kumar             : LibInt (2-el integral package), F12 methods 
  Garnet Chan, S. Sharma, J. Yang, R. Olivares  : DMRG                   
  Ulf Ekstrom                                   : XCFun DFT Library      
  Mihaly Kallay                                 : mrcc  (arbitrary order and MRCC methods)
  Frank Weinhold                                : gennbo (NPA and NBO analysis)           
  Simon Mueller                                 : openCOSMO-RS                            
  Christopher J. Cramer and Donald G. Truhlar   : smd solvation model                     
  S Lehtola, MJT Oliveira, MAL Marques          : LibXC Library                           
  Liviu Ungur et al                             : ANISO software                          


 Your calculation uses the libint2 library for the computation of 2-el integrals
 For citations please refer to: http://libint.valeyev.net

 Your ORCA version has been built with support for libXC version: 7.0.0
 For citations please refer to: https://libxc.gitlab.io

 This ORCA versions uses:
   CBLAS   interface :  Fast vector & matrix operations
   LAPACKE interface :  Fast linear algebra routines
   SCALAPACK package :  Parallel linear algebra routines
   Shared memory     :  Shared parallel matrices
   BLAS/LAPACK       :  OpenBLAS 0.3.29  USE64BITINT DYNAMIC_ARCH NO_AFFINITY Haswell SINGLE_THREADED
        Core in use  :  Haswell
   Copyright (c) 2011-2014, The OpenBLAS Project


  ***********************************
  * Starting time: Sun Jun  7 04:16:10 2026
  * Host name:     steezy
  * Process ID:    1791287
  * Working dir.:  /home/jannes/zntpp/04_tddft/pbe0
  ***********************************

NOTE: MaxCore=3000 MB was set to SCF,MP2,MDCI,CIPSI,MRCI,RASCI and CIS
      => If you want to overwrite this, your respective input block should be placed after the MaxCore statement


***************************************
The coordinates will be read from file: /home/jannes/zntpp/01_opt/zntpp_opt_b3lyp_tzvp.xyz
***************************************


================================================================================

----- Orbital basis set information -----
Your calculation utilizes the basis: def2-TZVP
   F. Weigend and R. Ahlrichs, Phys. Chem. Chem. Phys. 7, 3297 (2005).

----- AuxJ basis set information -----
Your calculation utilizes the auxiliary basis: def2/J
   H-Rn: F. Weigend, Phys. Chem. Chem. Phys. 8, 1057 (2006).
   Fr-Lr: K. Eichkorn, F. Weigend, O. Treutler, R. Ahlrichs; Theor. Chem. Acc. 97, 119 (1997).

================================================================================
                                        WARNINGS
                       Please study these warnings very carefully!
================================================================================


WARNING: CIS/ROCIS methods need fully converged wavefunctions
  ===> : Setting SCFConvForced true
         You can overwrite this default with %scf ConvForced false 


================================================================================
                                       INPUT FILE
================================================================================
NAME = tddft.inp
|  1> %pal nprocs 8 end
|  2> %maxcore 3000
|  3> ! PBE0 def2-TZVP def2/J RIJCOSX DefGrid3 TightSCF CPCM(Toluene)
|  4> %tddft
|  5>   nroots 30
|  6>   triplets false
|  7>   tda false
|  8> end
|  9> * xyzfile 0 1 /home/jannes/zntpp/01_opt/zntpp_opt_b3lyp_tzvp.xyz
| 10> 
| 11>                          ****END OF INPUT****
================================================================================

                       ****************************
                       * Single Point Calculation *
                       ****************************

---------------------------------
CARTESIAN COORDINATES (ANGSTROEM)
---------------------------------
  N     -2.128555    2.521821    3.514445
  H      1.679246   -2.252277    3.911258
  C     -4.369984    3.012164    3.505335
  C     -0.398585   -1.573233    3.873891
  N      0.090194    0.658016    3.656874
  C      0.952938   -1.459784    3.844538
  H     -0.979263   -2.475782    3.964403
  C      2.863231    1.837944    3.504098
  N     -0.259990    4.728225    3.275318
  C     -1.122589    6.846120    3.087833
  C      2.554364    0.476189    3.636610
  C      2.674824    4.026514    3.291953
  N      1.958667    2.864378    3.417427
  C      4.084464    3.720155    3.302156
  C     -0.939698   -0.240836    3.759905
  C      1.258819   -0.056992    3.704356
  C     -2.844886    1.359138    3.633884
  C     -3.032921    3.549045    3.434948
  C     -4.254377    1.666475    3.632131
  C     -2.307798    0.068574    3.749698
  C     -2.724065    4.910402    3.298449
  C      4.200194    2.374421    3.428341
  C     -1.428614    5.442928    3.224110
  C      0.228839    6.958922    3.052384
  C      2.137843    5.317243    3.178366
  C      0.769957    5.627222    3.173980
  H     -5.276937    3.591548    3.463276
  H     -5.049608    0.945070    3.716870
  H      5.107132    1.794799    3.467075
  H      4.879663    4.442261    3.223116
  H      0.809563    7.860555    2.953271
  H     -1.848755    7.639233    3.027240
  Zn    -0.084939    2.693116    3.466029
  C      3.700933   -0.486388    3.712454
  C      4.108108   -1.201821    2.584245
  C      5.172729   -2.094184    2.653906
  C      5.846616   -2.285840    3.855097
  C      5.449547   -1.579336    4.985093
  C      4.385461   -0.686546    4.913199
  H      3.586791   -1.054134    1.646319
  H      5.476059   -2.638197    1.767767
  H      6.675289   -2.980820    3.910163
  H      5.966790   -1.723515    5.925774
  H      4.078223   -0.139324    5.796054
  C     -3.273085   -1.071472    3.872955
  C     -3.904249   -1.597407    2.743545
  C     -4.799157   -2.656094    2.857020
  C     -5.078087   -3.204960    4.103867
  C     -4.456253   -2.688836    5.235517
  C     -3.560665   -1.630988    5.119913
  H     -3.688530   -1.174051    1.770133
  H     -5.276922   -3.052614    1.969493
  H     -5.775165   -4.028894    4.193026
  H     -4.668895   -3.107985    6.211378
  H     -3.079623   -1.230870    6.004100
  C     -3.870369    5.873458    3.224899
  C     -4.316851    6.357914    1.993460
  C     -5.380713    7.251143    1.923794
  C     -6.014648    7.675094    3.086596
  C     -5.578392    7.199678    4.318409
  C     -4.515144    6.305553    4.385999
  H     -3.826760    6.029067    1.085176
  H     -5.714634    7.614108    0.959461
  H     -6.842757    8.370883    3.033211
  H     -6.064513    7.525507    5.229848
  H     -4.177530    5.938797    5.347664
  C      3.103506    6.456495    3.050290
  C      3.681960    6.765339    1.817145
  C      4.578273    7.821990    1.696512
  C      4.911261    8.586480    2.809338
  C      4.341889    8.287884    4.042364
  C      3.444819    7.231565    4.160802
  H      3.424173    6.173246    0.947507
  H      5.014892    8.048106    0.731401
  H      5.609397    9.409102    2.716387
  H      4.596585    8.876241    4.915382
  H      3.004811    7.001338    5.123468

----------------------------
CARTESIAN COORDINATES (A.U.)
----------------------------
  NO LB      ZA    FRAG     MASS         X           Y           Z
   0 N     7.0000    0    14.007   -4.022387    4.765551    6.641339
   1 H     1.0000    0     1.008    3.173315   -4.256187    7.391206
   2 C     6.0000    0    12.011   -8.258072    5.692164    6.624123
   3 C     6.0000    0    12.011   -0.753217   -2.972979    7.320593
   4 N     7.0000    0    14.007    0.170443    1.243470    6.910491
   5 C     6.0000    0    12.011    1.800792   -2.758593    7.265124
   6 H     1.0000    0     1.008   -1.850539   -4.678550    7.491636
   7 C     6.0000    0    12.011    5.410722    3.473212    6.621786
   8 N     7.0000    0    14.007   -0.491309    8.935051    6.189453
   9 C     6.0000    0    12.011   -2.121387   12.937293    5.835159
  10 C     6.0000    0    12.011    4.827048    0.899866    6.872197
  11 C     6.0000    0    12.011    5.054685    7.609008    6.220890
  12 N     7.0000    0    14.007    3.701344    5.412889    6.458002
  13 C     6.0000    0    12.011    7.718518    7.030075    6.240171
  14 C     6.0000    0    12.011   -1.775772   -0.455114    7.105191
  15 C     6.0000    0    12.011    2.378823   -0.107699    7.000218
  16 C     6.0000    0    12.011   -5.376055    2.568398    6.867046
  17 C     6.0000    0    12.011   -5.731390    6.706722    6.491111
  18 C     6.0000    0    12.011   -8.039608    3.149181    6.863732
  19 C     6.0000    0    12.011   -4.361106    0.129586    7.085902
  20 C     6.0000    0    12.011   -5.147736    9.279315    6.233166
  21 C     6.0000    0    12.011    7.937216    4.487005    6.478625
  22 C     6.0000    0    12.011   -2.699689   10.285644    6.092686
  23 C     6.0000    0    12.011    0.432443   13.150456    5.768170
  24 C     6.0000    0    12.011    4.039938   10.048134    6.006241
  25 C     6.0000    0    12.011    1.455009   10.633908    5.997954
  26 H     1.0000    0     1.008   -9.971966    6.787043    6.544643
  27 H     1.0000    0     1.008   -9.542376    1.785924    7.023866
  28 H     1.0000    0     1.008    9.651080    3.391678    6.551822
  29 H     1.0000    0     1.008    9.221226    8.394656    6.090807
  30 H     1.0000    0     1.008    1.529852   14.854296    5.580874
  31 H     1.0000    0     1.008   -3.493641   14.436059    5.720654
  32 Zn   30.0000    0    65.380   -0.160511    5.089252    6.549846
  33 C     6.0000    0    12.011    6.993749   -0.919139    7.015521
  34 C     6.0000    0    12.011    7.763199   -2.271113    4.883516
  35 C     6.0000    0    12.011    9.775042   -3.957434    5.015155
  36 C     6.0000    0    12.011   11.048503   -4.319612    7.285078
  37 C     6.0000    0    12.011   10.298150   -2.984512    9.420461
  38 C     6.0000    0    12.011    8.287321   -1.297384    9.284601
  39 H     1.0000    0     1.008    6.778052   -1.992024    3.111092
  40 H     1.0000    0     1.008   10.348252   -4.985469    3.340596
  41 H     1.0000    0     1.008   12.614468   -5.632934    7.389137
  42 H     1.0000    0     1.008   11.275599   -3.256971   11.198090
  43 H     1.0000    0     1.008    7.706724   -0.263284   10.952955
  44 C     6.0000    0    12.011   -6.185235   -2.024788    7.318825
  45 C     6.0000    0    12.011   -7.377961   -3.018662    5.184549
  46 C     6.0000    0    12.011   -9.069092   -5.019291    5.398985
  47 C     6.0000    0    12.011   -9.596194   -6.056498    7.755184
  48 C     6.0000    0    12.011   -8.421097   -5.081163    9.893693
  49 C     6.0000    0    12.011   -6.728682   -3.082121    9.675233
  50 H     1.0000    0     1.008   -6.970311   -2.218636    3.345067
  51 H     1.0000    0     1.008   -9.971937   -5.768605    3.721803
  52 H     1.0000    0     1.008  -10.913481   -7.613507    7.923671
  53 H     1.0000    0     1.008   -8.822933   -5.873241   11.737804
  54 H     1.0000    0     1.008   -5.819644   -2.326007   11.346104
  55 C     6.0000    0    12.011   -7.313938   11.099227    6.094176
  56 C     6.0000    0    12.011   -8.157666   12.014716    3.767093
  57 C     6.0000    0    12.011  -10.168074   13.702674    3.635443
  58 C     6.0000    0    12.011  -11.366038   14.503826    5.832822
  59 C     6.0000    0    12.011  -10.541634   13.605420    8.160611
  60 C     6.0000    0    12.011   -8.532386   11.915768    8.288337
  61 H     1.0000    0     1.008   -7.231528   11.393285    2.050685
  62 H     1.0000    0     1.008  -10.799093   14.388579    1.813119
  63 H     1.0000    0     1.008  -12.930936   15.818676    5.731938
  64 H     1.0000    0     1.008  -11.460269   14.221147    9.882980
  65 H     1.0000    0     1.008   -7.894387   11.222699   10.105620
  66 C     6.0000    0    12.011    5.864777   12.201007    5.764212
  67 C     6.0000    0    12.011    6.957897   12.784638    3.433906
  68 C     6.0000    0    12.011    8.651682   14.781419    3.205944
  69 C     6.0000    0    12.011    9.280939   16.226096    5.308880
  70 C     6.0000    0    12.011    8.204982   15.661831    7.638960
  71 C     6.0000    0    12.011    6.509765   13.665678    7.862776
  72 H     1.0000    0     1.008    6.470749   11.665745    1.790528
  73 H     1.0000    0     1.008    9.476772   15.208716    1.382147
  74 H     1.0000    0     1.008   10.600223   17.780626    5.133228
  75 H     1.0000    0     1.008    8.686286   16.773664    9.288725
  76 H     1.0000    0     1.008    5.678270   13.230612    9.681952

--------------------------------
INTERNAL COORDINATES (ANGSTROEM)
--------------------------------
 N      0   0   0     0.000000000000     0.00000000     0.00000000
 H      1   0   0     6.119544609553     0.00000000     0.00000000
 C      1   2   0     2.294454011207   140.79010051     0.00000000
 C      2   1   3     2.186293848341    33.40707509     0.34106114
 N      4   2   1     2.294443978057    95.80796136     0.08486163
 C      2   1   3     1.077042165850     3.92469267     1.90384846
 H      4   2   1     1.077021274757   104.51838878   179.96426994
 C      5   4   2     3.017499182404   125.50798452     0.13061668
 N      1   2   6     2.901196304498   101.41364134   181.77715198
 C      9   1   2     2.294495465089   117.81272053   180.03507050
 C      8   5   4     1.402617980696    54.07062945     0.00000000
 C      8   5   4     2.206884295453   108.31219866   179.74476543
 N     12   8   5     1.370833715702    36.39735210     0.13465003
 C     12   8   5     1.442582406246    72.85996634   180.04197634
 C      5   4   2     1.370849417385    36.41075581   180.34190992
 C      5   4   2     1.370829614730    70.79837857     0.21995082
 C      1   2   6     1.370849005387    69.99043058     1.66869440
 C      1   2   6     1.370906814200   177.19264341     5.66720204
 C      3   1   2     1.356583829775    72.80577004   359.93688133
 C     17   1   2     1.402651632840   125.97826882     0.08625359
 C     18   1  17     1.402611239747   125.98998775   180.28256348
 C     14  12   8     1.356582980699   107.13889860     0.18750469
 C      9   1   2     1.370804714242    81.40314079   179.95801682
 C     10   9   1     1.356590912637    72.80488243   180.14705619
 C     12   8   5     1.402580997285   162.38014338     0.78404173
 C      9   1   2     1.370859177061   171.38959537   359.93854590
 H      3   1   2     1.077042372642   159.67446324   180.23012340
 H     19   3   1     1.077031692090   127.50718792   179.84585378
 H     22  14  12     1.077032466449   127.52044500   179.72372799
 H     14  12   8     1.077044478741   125.34893106   180.19721276
 H     24  10   9     1.077036063129   127.52799022   179.86496916
 H     10   9   1     1.077040772020   159.68056758     0.49314505
 Zn    13  12   8     2.051345186941   126.39861605   180.01176353
 C     11   8   5     1.498975002703   117.37364575   180.12231805
 C     34  11   8     1.396599935545   120.73632797   260.81551720
 C     35  34  11     1.390892457345   120.75428931   179.94132756
 C     36  35  34     1.390581203293   120.17332090     0.05878968
 C     37  36  35     1.390576738799   119.57323724   359.97035164
 C     38  37  36     1.390870129530   120.17050613   359.97317460
 H     35  34  11     1.083185036027   119.29663277     0.09915726
 H     36  35  34     1.083143891364   119.71019389   180.16833060
 H     37  36  35     1.082925347053   120.21223093   179.97018105
 H     38  37  36     1.083147890456   120.11518343   179.85977205
 H     39  38  37     1.083181015268   119.94417075   179.90157384
 C     20  17   1     1.498891322754   117.38766669   179.87846531
 C     45  20  17     1.396618301307   120.72790326    80.31698157
 C     46  45  20     1.390883017252   120.75931779   179.94064434
 C     47  46  45     1.390569495532   120.17530433     0.06871198
 C     48  47  46     1.390573492617   119.57043939   359.97534587
 C     49  48  47     1.390856522021   120.17190858   359.96242902
 H     46  45  20     1.083187714850   119.31007218     0.11809285
 H     47  46  45     1.083139294676   119.70943531   180.17217182
 H     48  47  46     1.082928842322   120.21506749   179.96593587
 H     49  48  47     1.083147786706   120.11748509   179.84687948
 H     50  49  48     1.083181818228   119.93804654   179.90374115
 C     21  18   1     1.498966613937   117.38477927   179.77788255
 C     56  21  18     1.396597916529   120.70436538   261.16713757
 C     57  56  21     1.390867761343   120.76155285   179.97461334
 C     58  57  56     1.390582407448   120.17252421     0.05374361
 C     59  58  57     1.390576502422   119.56944005   359.96659070
 C     60  59  58     1.390872249240   120.17565657   359.97513983
 H     57  56  21     1.083194334658   119.30159898     0.11782789
 H     58  57  56     1.083136238093   119.71008709   180.15439003
 H     59  58  57     1.082929025331   120.21640663   179.97293344
 H     60  59  58     1.083142601943   120.11639336   179.88210610
 H     61  60  59     1.083186648078   119.93877736   179.91030740
 C     25  12   8     1.498934038660   117.36800041   179.52270751
 C     67  25  12     1.396653150260   120.68608494    81.09904729
 C     68  67  25     1.390841400961   120.76286134   180.00642566
 C     69  68  67     1.390578103786   120.17054410     0.05654456
 C     70  69  68     1.390573869412   119.57064401   359.96777865
 C     71  70  69     1.390888841300   120.17630173   359.97413960
 H     68  67  25     1.083189189182   119.30217305     0.15139686
 H     69  68  67     1.083145817904   119.71294294   180.15434617
 H     70  69  68     1.082931006480   120.21854136   179.97246096
 H     71  70  69     1.083140727035   120.11703831   179.87054230
 H     72  71  70     1.083207787092   119.93930250   179.90074954

---------------------------
INTERNAL COORDINATES (A.U.)
---------------------------
 N      0   0   0     0.000000000000     0.00000000     0.00000000
 H      1   0   0    11.564263376369     0.00000000     0.00000000
 C      1   2   0     4.335889708059   140.79010051     0.00000000
 C      2   1   3     4.131496621641    33.40707509     0.34106114
 N      4   2   1     4.335870748152    95.80796136     0.08486163
 C      2   1   3     2.035314728142     3.92469267     1.90384846
 H      4   2   1     2.035275249697   104.51838878   179.96426994
 C      5   4   2     5.702247064074   125.50798452     0.13061668
 N      1   2   6     5.482466476246   101.41364134   181.77715198
 C      9   1   2     4.335968044542   117.81272053   180.03507050
 C      8   5   4     2.650563854029    54.07062945     0.00000000
 C      8   5   4     4.170406927659   108.31219866   179.74476543
 N     12   8   5     2.590500297822    36.39735210     0.13465003
 C     12   8   5     2.726085673418    72.85996634   180.04197634
 C      5   4   2     2.590529969703    36.41075581   180.34190992
 C      5   4   2     2.590492548109    70.79837857     0.21995082
 C      1   2   6     2.590529191139    69.99043058     1.66869440
 C      1   2   6     2.590638433964   177.19264341     5.66720204
 C      3   1   2     2.563571915982    72.80577004   359.93688133
 C     17   1   2     2.650627447364   125.97826882     0.08625359
 C     18   1  17     2.650551115482   125.98998775   180.28256348
 C     14  12   8     2.563570311459   107.13889860     0.18750469
 C      9   1   2     2.590445493005    81.40314079   179.95801682
 C     10   9   1     2.563585300650    72.80488243   180.14705619
 C     12   8   5     2.650493965511   162.38014338     0.78404173
 C      9   1   2     2.590548412818   171.38959537   359.93854590
 H      3   1   2     2.035315118921   159.67446324   180.23012340
 H     19   3   1     2.035294935605   127.50718792   179.84585378
 H     22  14  12     2.035296398930   127.52044500   179.72372799
 H     14  12   8     2.035319098873   125.34893106   180.19721276
 H     24  10   9     2.035303195671   127.52799022   179.86496916
 H     10   9   1     2.035312094185   159.68056758     0.49314505
 Zn    13  12   8     3.876480609456   126.39861605   180.01176353
 C     11   8   5     2.832652236702   117.37364575   180.12231805
 C     34  11   8     2.639191396832   120.73632797   260.81551720
 C     35  34  11     2.628405826120   120.75428931   179.94132756
 C     36  35  34     2.627817641202   120.17332090     0.05878968
 C     37  36  35     2.627809204532   119.57323724   359.97035164
 C     38  37  36     2.628363632663   120.17050613   359.97317460
 H     35  34  11     2.046923070452   119.29663277     0.09915726
 H     36  35  34     2.046845318308   119.71019389   180.16833060
 H     37  36  35     2.046432329411   120.21223093   179.97018105
 H     38  37  36     2.046852875496   120.11518343   179.85977205
 H     39  38  37     2.046915472320   119.94417075   179.90157384
 C     20  17   1     2.832494104516   117.38766669   179.87846531
 C     45  20  17     2.639226103092   120.72790326    80.31698157
 C     46  45  20     2.628387986927   120.75931779   179.94064434
 C     47  46  45     2.627795516741   120.17530433     0.06871198
 C     48  47  46     2.627803070137   119.57043939   359.97534587
 C     49  48  47     2.628337918197   120.17190858   359.96242902
 H     46  45  20     2.046928132695   119.31007218     0.11809285
 H     47  46  45     2.046836631826   119.70943531   180.17217182
 H     48  47  46     2.046438934513   120.21506749   179.96593587
 H     49  48  47     2.046852679437   120.11748509   179.84687948
 H     50  49  48     2.046916989694   119.93804654   179.90374115
 C     21  18   1     2.832636384232   117.38477927   179.77788255
 C     56  21  18     2.639187581444   120.70436538   261.16713757
 C     57  56  21     2.628359157438   120.76155285   179.97461334
 C     58  57  56     2.627819916726   120.17252421     0.05374361
 C     59  58  57     2.627808757843   119.56944005   359.96659070
 C     60  59  58     2.628367638335   120.17565657   359.97513983
 H     57  56  21     2.046940642318   119.30159898     0.11782789
 H     58  57  56     2.046830855722   119.71008709   180.15439003
 H     59  58  57     2.046439280351   120.21640663   179.97293344
 H     60  59  58     2.046842881654   120.11639336   179.88210610
 H     61  60  59     2.046926116788   119.93877736   179.91030740
 C     25  12   8     2.832574825879   117.36800041   179.52270751
 C     67  25  12     2.639291958070   120.68608494    81.09904729
 C     68  67  25     2.628309343536   120.76286134   180.00642566
 C     69  68  67     2.627811783983   120.17054410     0.05654456
 C     70  69  68     2.627803782176   119.57064401   359.96777865
 C     71  70  69     2.628398992784   120.17630173   359.97413960
 H     68  67  25     2.046930918777   119.30217305     0.15139686
 H     69  68  67     2.046848958941   119.71294294   180.15434617
 H     70  69  68     2.046443024179   120.21854136   179.97246096
 H     71  70  69     2.046839338592   120.11703831   179.87054230
 H     72  71  70     2.046966063735   119.93930250   179.90074954

---------------------
BASIS SET INFORMATION
---------------------
There are 4 groups of distinct atoms

 Group   1 Type N   : 11s6p2d1f contracted to 5s3p2d1f pattern {62111/411/11/1}
 Group   2 Type H   : 5s1p contracted to 3s1p pattern {311/1}
 Group   3 Type C   : 11s6p2d1f contracted to 5s3p2d1f pattern {62111/411/11/1}
 Group   4 Type Zn  : 17s12p7d1f contracted to 6s5p4d1f pattern {842111/63111/4111/1}

Atom   0N    basis set group =>   1
Atom   1H    basis set group =>   2
Atom   2C    basis set group =>   3
Atom   3C    basis set group =>   3
Atom   4N    basis set group =>   1
Atom   5C    basis set group =>   3
Atom   6H    basis set group =>   2
Atom   7C    basis set group =>   3
Atom   8N    basis set group =>   1
Atom   9C    basis set group =>   3
Atom  10C    basis set group =>   3
Atom  11C    basis set group =>   3
Atom  12N    basis set group =>   1
Atom  13C    basis set group =>   3
Atom  14C    basis set group =>   3
Atom  15C    basis set group =>   3
Atom  16C    basis set group =>   3
Atom  17C    basis set group =>   3
Atom  18C    basis set group =>   3
Atom  19C    basis set group =>   3
Atom  20C    basis set group =>   3
Atom  21C    basis set group =>   3
Atom  22C    basis set group =>   3
Atom  23C    basis set group =>   3
Atom  24C    basis set group =>   3
Atom  25C    basis set group =>   3
Atom  26H    basis set group =>   2
Atom  27H    basis set group =>   2
Atom  28H    basis set group =>   2
Atom  29H    basis set group =>   2
Atom  30H    basis set group =>   2
Atom  31H    basis set group =>   2
Atom  32Zn   basis set group =>   4
Atom  33C    basis set group =>   3
Atom  34C    basis set group =>   3
Atom  35C    basis set group =>   3
Atom  36C    basis set group =>   3
Atom  37C    basis set group =>   3
Atom  38C    basis set group =>   3
Atom  39H    basis set group =>   2
Atom  40H    basis set group =>   2
Atom  41H    basis set group =>   2
Atom  42H    basis set group =>   2
Atom  43H    basis set group =>   2
Atom  44C    basis set group =>   3
Atom  45C    basis set group =>   3
Atom  46C    basis set group =>   3
Atom  47C    basis set group =>   3
Atom  48C    basis set group =>   3
Atom  49C    basis set group =>   3
Atom  50H    basis set group =>   2
Atom  51H    basis set group =>   2
Atom  52H    basis set group =>   2
Atom  53H    basis set group =>   2
Atom  54H    basis set group =>   2
Atom  55C    basis set group =>   3
Atom  56C    basis set group =>   3
Atom  57C    basis set group =>   3
Atom  58C    basis set group =>   3
Atom  59C    basis set group =>   3
Atom  60C    basis set group =>   3
Atom  61H    basis set group =>   2
Atom  62H    basis set group =>   2
Atom  63H    basis set group =>   2
Atom  64H    basis set group =>   2
Atom  65H    basis set group =>   2
Atom  66C    basis set group =>   3
Atom  67C    basis set group =>   3
Atom  68C    basis set group =>   3
Atom  69C    basis set group =>   3
Atom  70C    basis set group =>   3
Atom  71C    basis set group =>   3
Atom  72H    basis set group =>   2
Atom  73H    basis set group =>   2
Atom  74H    basis set group =>   2
Atom  75H    basis set group =>   2
Atom  76H    basis set group =>   2
---------------------------------
AUXILIARY/J BASIS SET INFORMATION
---------------------------------
There are 4 groups of distinct atoms

 Group   1 Type N   : 12s5p4d2f1g contracted to 6s4p3d1f1g pattern {711111/2111/211/2/1}
 Group   2 Type H   : 5s2p1d contracted to 3s1p1d pattern {311/2/1}
 Group   3 Type C   : 12s5p4d2f1g contracted to 6s4p3d1f1g pattern {711111/2111/211/2/1}
 Group   4 Type Zn  : 19s5p5d3f3g contracted to 8s5p5d2f3g pattern {121111111/11111/11111/21/111}

Atom   0N    basis set group =>   1
Atom   1H    basis set group =>   2
Atom   2C    basis set group =>   3
Atom   3C    basis set group =>   3
Atom   4N    basis set group =>   1
Atom   5C    basis set group =>   3
Atom   6H    basis set group =>   2
Atom   7C    basis set group =>   3
Atom   8N    basis set group =>   1
Atom   9C    basis set group =>   3
Atom  10C    basis set group =>   3
Atom  11C    basis set group =>   3
Atom  12N    basis set group =>   1
Atom  13C    basis set group =>   3
Atom  14C    basis set group =>   3
Atom  15C    basis set group =>   3
Atom  16C    basis set group =>   3
Atom  17C    basis set group =>   3
Atom  18C    basis set group =>   3
Atom  19C    basis set group =>   3
Atom  20C    basis set group =>   3
Atom  21C    basis set group =>   3
Atom  22C    basis set group =>   3
Atom  23C    basis set group =>   3
Atom  24C    basis set group =>   3
Atom  25C    basis set group =>   3
Atom  26H    basis set group =>   2
Atom  27H    basis set group =>   2
Atom  28H    basis set group =>   2
Atom  29H    basis set group =>   2
Atom  30H    basis set group =>   2
Atom  31H    basis set group =>   2
Atom  32Zn   basis set group =>   4
Atom  33C    basis set group =>   3
Atom  34C    basis set group =>   3
Atom  35C    basis set group =>   3
Atom  36C    basis set group =>   3
Atom  37C    basis set group =>   3
Atom  38C    basis set group =>   3
Atom  39H    basis set group =>   2
Atom  40H    basis set group =>   2
Atom  41H    basis set group =>   2
Atom  42H    basis set group =>   2
Atom  43H    basis set group =>   2
Atom  44C    basis set group =>   3
Atom  45C    basis set group =>   3
Atom  46C    basis set group =>   3
Atom  47C    basis set group =>   3
Atom  48C    basis set group =>   3
Atom  49C    basis set group =>   3
Atom  50H    basis set group =>   2
Atom  51H    basis set group =>   2
Atom  52H    basis set group =>   2
Atom  53H    basis set group =>   2
Atom  54H    basis set group =>   2
Atom  55C    basis set group =>   3
Atom  56C    basis set group =>   3
Atom  57C    basis set group =>   3
Atom  58C    basis set group =>   3
Atom  59C    basis set group =>   3
Atom  60C    basis set group =>   3
Atom  61H    basis set group =>   2
Atom  62H    basis set group =>   2
Atom  63H    basis set group =>   2
Atom  64H    basis set group =>   2
Atom  65H    basis set group =>   2
Atom  66C    basis set group =>   3
Atom  67C    basis set group =>   3
Atom  68C    basis set group =>   3
Atom  69C    basis set group =>   3
Atom  70C    basis set group =>   3
Atom  71C    basis set group =>   3
Atom  72H    basis set group =>   2
Atom  73H    basis set group =>   2
Atom  74H    basis set group =>   2
Atom  75H    basis set group =>   2
Atom  76H    basis set group =>   2


           ************************************************************
           *        Program running with 8 parallel MPI-processes     *
           *              working on a common directory               *
           ************************************************************
------------------------------------------------------------------------------
                             ORCA STARTUP CALCULATIONS
                           -- RI-GTO INTEGRALS CHOSEN --
------------------------------------------------------------------------------
------------------------------------------------------------------------------
                   ___                                                        
                  /   \      - P O W E R E D   B Y -                         
                 /     \                                                     
                 |  |  |   _    _      __       _____    __    __             
                 |  |  |  | |  | |    /  \     |  _  \  |  |  /  |          
                  \  \/   | |  | |   /    \    | | | |  |  | /  /          
                 / \  \   | |__| |  /  /\  \   | |_| |  |  |/  /          
                |  |  |   |  __  | /  /__\  \  |    /   |      \           
                |  |  |   | |  | | |   __   |  |    \   |  |\   \          
                \     /   | |  | | |  |  |  |  | |\  \  |  | \   \       
                 \___/    |_|  |_| |__|  |__|  |_| \__\ |__|  \__/        
                                                                              
                      - O R C A' S   B I G   F R I E N D -                    
                                      &                                       
                       - I N T E G R A L  F E E D E R -                       
                                                                              
 v1 FN, 2020, v2 2021, v3 2022-2024                                           
------------------------------------------------------------------------------


----------------------
SHARK INTEGRAL PACKAGE
----------------------

Number of atoms                             ...     77
Number of basis functions                   ...   1704
Number of shells                            ...    656
Maximum angular momentum                    ...      3
Integral batch strategy                     ... SHARK/LIBINT Hybrid
RI-J (if used) integral strategy            ... SPLIT-RIJ (Revised 2003 algorithm where possible)
Printlevel                                  ...      1
Contraction scheme used                     ... SEGMENTED contraction
Prescreening option                         ... SCHWARTZ
   Thresh                                   ... 2.500e-11
   Tcut                                     ... 2.500e-12
   Tpresel                                  ... 2.500e-12 
Coulomb Range Separation                    ... NOT USED
Exchange Range Separation                   ... NOT USED
Multipole approximations                    ... NOT USED
Finite Nucleus Model                        ... NOT USED
CABS basis                                  ... NOT available
Auxiliary Coulomb fitting basis             ... AVAILABLE
   # of basis functions in Aux-J            ...   2749
   # of shells in Aux-J                     ...    883
   Maximum angular momentum in Aux-J        ...      4
Auxiliary J/K fitting basis                 ... NOT available
Auxiliary Correlation fitting basis         ... NOT available
Auxiliary 'external' fitting basis          ... NOT available

Checking pre-screening integrals            ... done (  0.0 sec) Dimension = 656
   => SHARK Basis and OBASIS are compatible. Storing Pre-screening
Shell pair information
Shell pair cut-off parameter TPreSel        ...   2.5e-12
Total number of shell pairs                 ...    215496
Shell pairs after pre-screening             ...    104313
Total number of primitive shell pairs       ...    680394
Primitive shell pairs kept                  ...    202009
          la=0 lb=0:  24656 shell pairs
          la=1 lb=0:  30604 shell pairs
          la=1 lb=1:   9373 shell pairs
          la=2 lb=0:  14863 shell pairs
          la=2 lb=1:   9372 shell pairs
          la=2 lb=2:   2256 shell pairs
          la=3 lb=0:   6615 shell pairs
          la=3 lb=1:   4225 shell pairs
          la=3 lb=2:   1902 shell pairs
          la=3 lb=3:    447 shell pairs

Checking whether 4 symmetric matrices of dimension 1704 fit in memory
:Max Core in MB      =   3000.00
 MB in use           =    127.60
 MB left             =   2872.40
 MB needed           =     44.33
 Data fit in memory  = YES
Calculating RI/J V-Matrix + Cholesky decomp.... done (  1.9 sec)
Calculating Nuclear repulsion               ... done (  0.0 sec) ENN=   6465.853143938957 Eh

Diagonalization of the overlap matrix:
Smallest eigenvalue                        ... 2.950e-06
Time for diagonalization                   ...    3.194 sec
Threshold for overlap eigenvalues          ... 1.000e-07
Number of eigenvalues below threshold      ... 0
Time for construction of square roots      ...    1.198 sec
Total time needed                          ...    4.775 sec

-------------------
DFT GRID GENERATION
-------------------

General Integration Accuracy     IntAcc      ... 4.959
Radial Grid Type                 RadialGrid  ... OptM3 with GC (2021)
Angular Grid (max. ang.)         AngularGrid ... 6 (Lebedev-590)
Angular grid pruning method      GridPruning ... 4 (adaptive)
Weight generation scheme         WeightScheme... mBecke (2022)
Basis function cutoff            BFCut       ... 1.0000e-11
Integration weight cutoff        WCut        ... 1.0000e-14
Partially contracted basis set               ... off
Rotationally invariant grid construction     ... off
Angular grids for H and He will be reduced by one unit
Core-polarized basis detected: some atoms will have their core
                               angular grid increased.

Total number of grid points                  ...   939385
Total number of batches                      ...    14718
Average number of points per batch           ...       63
Average number of grid points per atom       ...    12200

--------------------
COSX GRID GENERATION
--------------------

GRIDX 1
-------
General Integration Accuracy     IntAcc      ... 4.020
Radial Grid Type                 RadialGrid  ... OptM3 with GC (2021)
Angular Grid (max. ang.)         AngularGrid ... 2 (Lebedev-110)
Angular grid pruning method      GridPruning ... 4 (adaptive)
Weight generation scheme         WeightScheme... mBecke (2022)
Basis function cutoff            BFCut       ... 1.0000e-11
Integration weight cutoff        WCut        ... 1.0000e-14
Partially contracted basis set               ... on
Rotationally invariant grid construction     ... off
Angular grids for H and He will be reduced by one unit
Core-polarized basis detected: some atoms will have their core
                               angular grid increased.

Total number of grid points                  ...   108499
Total number of batches                      ...      892
Average number of points per batch           ...      121
Average number of grid points per atom       ...     1409
UseSFitting                                  ... on

GRIDX 2
-------
General Integration Accuracy     IntAcc      ... 4.338
Radial Grid Type                 RadialGrid  ... OptM3 with GC (2021)
Angular Grid (max. ang.)         AngularGrid ... 3 (Lebedev-194)
Angular grid pruning method      GridPruning ... 4 (adaptive)
Weight generation scheme         WeightScheme... mBecke (2022)
Basis function cutoff            BFCut       ... 1.0000e-11
Integration weight cutoff        WCut        ... 1.0000e-14
Partially contracted basis set               ... on
Rotationally invariant grid construction     ... off
Angular grids for H and He will be reduced by one unit
Core-polarized basis detected: some atoms will have their core
                               angular grid increased.

Total number of grid points                  ...   230678
Total number of batches                      ...     1839
Average number of points per batch           ...      125
Average number of grid points per atom       ...     2996
UseSFitting                                  ... on

GRIDX 3
-------
General Integration Accuracy     IntAcc      ... 4.871
Radial Grid Type                 RadialGrid  ... OptM3 with GC (2021)
Angular Grid (max. ang.)         AngularGrid ... 4 (Lebedev-302)
Angular grid pruning method      GridPruning ... 4 (adaptive)
Weight generation scheme         WeightScheme... mBecke (2022)
Basis function cutoff            BFCut       ... 1.0000e-11
Integration weight cutoff        WCut        ... 1.0000e-14
Partially contracted basis set               ... on
Rotationally invariant grid construction     ... off
Angular grids for H and He will be reduced by one unit
Core-polarized basis detected: some atoms will have their core
                               angular grid increased.

Total number of grid points                  ...   424616
Total number of batches                      ...     3347
Average number of points per batch           ...      126
Average number of grid points per atom       ...     5514
UseSFitting                                  ... on
Grids setup in  74.1 sec
Initializing property integral containers    ... done (  0.0 sec)

SHARK setup successfully completed in  84.7 seconds

Maximum memory used throughout the entire STARTUP-calculation: 343.3 MB


           ************************************************************
           *        Program running with 8 parallel MPI-processes     *
           *              working on a common directory               *
           ************************************************************
-------------------------------------------------------------------------------
                                 ORCA GUESS
                   Start orbitals & Density for SCF / CASSCF
-------------------------------------------------------------------------------

------------
SCF SETTINGS
------------
Hamiltonian:
 Density Functional     Method          .... DFT(GTOs)
 Exchange Functional    Exchange        .... PBE
   PBE kappa parameter   XKappa         ....  0.804000
   PBE mue parameter    XMuePBE         ....  0.219520
 Correlation Functional Correlation     .... PBE
   PBE beta parameter  CBetaPBE         ....  0.066725
 LDA part of GGA corr.  LDAOpt          .... PW91-LDA
 Gradients option       PostSCFGGA      .... off
 Hybrid DFT is turned on
   Fraction HF Exchange ScalHFX         ....  0.250000
   Scaling of DF-GGA-X  ScalDFX         ....  0.750000
   Scaling of DF-GGA-C  ScalDFC         ....  1.000000
   Scaling of DF-LDA-C  ScalLDAC        ....  1.000000
   Perturbative correction              ....  0.000000
   NL short-range parameter             ....  6.900000
 RI-approximation to the Coulomb term is turned on
   Number of AuxJ basis functions       .... 2749
   RIJ-COSX (HFX calculated with COS-X)).... on


General Settings:
 Integral files         IntName         .... tddft
 Hartree-Fock type      HFTyp           .... RHF
 Total Charge           Charge          ....    0
 Multiplicity           Mult            ....    1
 Number of Electrons    NEL             ....  350
 Basis Dimension        Dim             .... 1704
 Nuclear Repulsion      ENuc            ....   6465.8531439390 Eh

Convergence Acceleration:
 AO-DIIS                CNVDIIS         .... on
   Start iteration      DIISMaxIt       ....    12
   Startup error        DIISStart       ....  0.200000
   # of expansion vecs  DIISMaxEq       ....     5
   Bias factor          DIISBfac        ....   1.050
   Max. coefficient     DIISMaxC        ....  10.000
 MO-DIIS                CNVKDIIS        .... off
 Trust-Rad. Augm. Hess. CNVTRAH         .... auto
   Auto Start mean grad. ratio tolernc. ....  1.125000
   Auto Start start iteration           ....    50
   Auto Start num. interpolation iter.  ....    10
   Max. Number of Micro iterations      ....    24
   Max. Number of Macro iterations      .... Maxiter - #DIIS iter
   Number of Davidson start vectors     ....     2
   Converg. threshold    (grad. norm)   ....   1.000e-05
   Grad. Scal. Fac. for Micro threshold ....   0.100
   Minimum threshold for Micro iter.    ....   1.000e-02
   NR start threshold (gradient norm)   ....   1.000e-04
   Initial trust radius                 ....   0.400
   Minimum AH scaling param. (alpha)    ....   1.000
   Maximum AH scaling param. (alpha)    .... 1000.000
   Quad. conv. algorithm                .... NR
   White noise on init. David. guess    .... on
   Maximum white noise                  ....   0.010
   Pseudo random numbers                .... off
   Inactive MOs                         .... canonical
   Orbital update algorithm             .... Taylor
   Preconditioner                       .... Diag
   Full preconditioner red. dimension   ....   250
 SOSCF                 CNVSOSCF           .... on
   Start iteration     SOSCFMaxIt         ....   150
   Startup grad/error  SOSCFStart         ....  0.003300
   Hessian update      SOSCFHessUp        .... L-BFGS
   Autom. constraints  SOSCFAutoConstrain .... off
 Level Shifting         CNVShift        .... on
   Level shift para.    LevelShift      ....    0.2500
   Turn off err/grad.   ShiftErr        ....    0.0010
 Zerner damping         CNVZerner       .... off
 Static damping         CNVDamp         .... on
   Fraction old density DampFac         ....    0.7000
   Max. Damping (<1)    DampMax         ....    0.9800
   Min. Damping (>=0)   DampMin         ....    0.0000
   Turn off err/grad.   DampErr         ....    0.1000

SCF Procedure:
 Maximum # iterations   MaxIter         ....   125
 SCF integral mode      SCFMode         .... Direct
   Integral package                     .... SHARK and LIBINT hybrid scheme
 Reset frequency        DirectResetFreq ....    20
 Integral Threshold     Thresh          ....  2.500e-11 Eh
 Primitive CutOff       TCut            ....  2.500e-12 Eh

Convergence Tolerance:
 Convergence Check Mode ConvCheckMode   .... Total+1el-Energy
 Convergence forced     ConvForced      .... 1
 Energy Change          TolE            ....  1.000e-08 Eh
 1-El. energy change                    ....  1.000e-05 Eh
 Orbital Gradient       TolG            ....  1.000e-05
 Orbital Rotation angle TolX            ....  1.000e-05
 DIIS Error             TolErr          ....  5.000e-07

------------------------------
INITIAL GUESS: MODEL POTENTIAL
------------------------------
Loading Hartree-Fock densities                     ... done
Calculating cut-offs                               ... done
Initializing the effective Hamiltonian             ... done
Setting up the integral package (SHARK)            ... done
Starting the Coulomb interaction                   ... done (   7.2 sec)
Making the grid                                    ... done (   3.1 sec)
Mapping shells                                     ... done
Starting the XC term evaluation                    ... done (   2.4 sec)
  promolecular density results
     # of electrons  =    349.984735077
     EX              =   -329.213710840
     EC              =    -12.231181830
     EX+EC           =   -341.444892670
Transforming the Hamiltonian                       ... done (   2.3 sec)
Diagonalizing the Hamiltonian                      ... done (   3.9 sec)
Back transforming the eigenvectors                 ... done (   0.8 sec)
Now organizing SCF variables                       ... done
                      ------------------
                      INITIAL GUESS DONE (  20.9 sec)
                      ------------------
             **** ENERGY FILE WAS UPDATED (tddft.en.tmp) ****
Finished Guess after  34.0 sec
Maximum memory used throughout the entire GUESS-calculation: 208.9 MB


           ************************************************************
           *        Program running with 8 parallel MPI-processes     *
           *              working on a common directory               *
           ************************************************************

-------------------------------------------------------------------------------------------
                                      ORCA LEAN-SCF
                              memory conserving SCF solver
-------------------------------------------------------------------------------------------

--------------------
CPCM SOLVATION MODEL
--------------------
CPCM parameters:
  Epsilon                                         ...       2.3870
  Refrac                                          ...       1.4961
  Rsolv                                           ...       1.3000
  Surface type                                    ... GAUSSIAN VDW
  Discretization scheme                           ... Constant charge density
    Threshold for H atoms                         ...       5.0000 (charges/Ang^2)
    Threshold for non-H atoms                     ...       5.0000 (charges/Ang^2)
  Epsilon function type                           ...         CPCM
Solvent:                                          ... TOLUENE
Radii:
  Scheme                                          ... Element-dependent radii
  Radius for N  used is    3.5149 Bohr (=   1.8600 Ang.)
  Radius for H  used is    2.4944 Bohr (=   1.3200 Ang.)
  Radius for C  used is    3.8550 Bohr (=   2.0400 Ang.)
  Radius for Zn used is    3.1521 Bohr (=   1.6680 Ang.)
Calculating surface                               ...        done! (  0.1s)
Cavity surface points                             ...         6832
Cavity Volume                                     ...    4920.2253
Cavity Surface-area                               ...    2294.3185
Calculating surface distance matrix               ...        done! (  2.5s)
Performing Cholesky decomposition & store         ...        done! ( 11.7s)
Overall time for CPCM initialization              ...                14.3s

----------------------------------------D-I-I-S--------------------------------------------
Iteration    Energy (Eh)           Delta-E    RMSDP     MaxDP     DIISErr   Damp  Time(sec)
-------------------------------------------------------------------------------------------
               ***  Starting incremental Fock matrix formation  ***
    1    -3689.2111088621404633     0.00e+00  2.37e-03  1.19e-01  3.43e-01  0.700 343.5
    2    -3689.6562446893622109    -4.45e-01  1.65e-03  5.80e-02  9.59e-02  0.700 165.9
                               ***Turning on AO-DIIS***
    3    -3689.8550373430662148    -1.99e-01  9.30e-04  4.09e-02  4.58e-02  0.700 184.7
    4    -3689.9727379485575511    -1.18e-01  1.82e-03  1.15e-01  2.24e-02  0.000 168.2
    5    -3690.2264610562997404    -2.54e-01  3.69e-04  1.51e-02  1.97e-02  0.000 181.6
    6    -3690.2274912871871493    -1.03e-03  1.48e-04  4.83e-03  2.15e-02  0.000 150.7
    7    -3690.2278984087552089    -4.07e-04  5.76e-05  2.10e-03  6.14e-03  0.000 146.6
                              *** Initializing SOSCF ***
---------------------------------------S-O-S-C-F--------------------------------------
Iteration    Energy (Eh)           Delta-E    RMSDP     MaxDP     MaxGrad    Time(sec)
--------------------------------------------------------------------------------------
    8    -3690.2279299524288945    -3.15e-05  3.05e-05  5.57e-04  1.39e-03   135.1
               *** Restarting incremental Fock matrix formation ***
    9    -3690.2279306427335541    -6.90e-07  1.05e-04  2.74e-03  1.55e-04   377.3
   10    -3690.2279311443253391    -5.02e-07  4.13e-05  1.01e-03  8.37e-05   242.8
   11    -3690.2279315077503270    -3.63e-07  3.46e-05  7.88e-04  3.80e-05   193.0
   12    -3690.2279315694577235    -6.17e-08  2.00e-05  1.09e-03  1.51e-05   228.6
   13    -3690.2279316694930458    -1.00e-07  2.41e-05  1.06e-03  6.44e-06   181.2
   14    -3690.2279316562780878     1.32e-08  2.81e-05  9.76e-04  2.93e-06   173.7
   15    -3690.2279316817403014    -2.55e-08  1.22e-05  4.23e-04  2.76e-06   151.8
   16    -3690.2279317050033569    -2.33e-08  1.11e-05  5.25e-04  2.02e-06   174.9
                  *** Gradient check signals convergence ***

               *****************************************************
               *                     SUCCESS                       *
               *           SCF CONVERGED AFTER  16 CYCLES          *
               *****************************************************

Recomputing exchange energy using gridx3       ... done (  510.095 sec)
Old exchange energy                            :    -83.606386844 Eh
New exchange energy                            :    -83.606380740 Eh
Exchange energy change after final integration :      0.000006104 Eh
Total energy after final integration           :  -3690.227925691 Eh
             **** ENERGY FILE WAS UPDATED (tddft.en.tmp) ****

----------------
TOTAL SCF ENERGY
----------------

Total Energy       :      -3690.22792569134435 Eh         -100416.20692 eV

Components:
Nuclear Repulsion  :       6465.85314393895715 Eh          175944.80891 eV
Electronic Energy  :     -10156.06647209746188 Eh         -276360.61861 eV
One Electron Energy:     -17955.47637652770209 Eh         -488593.35181 eV
Two Electron Energy:       7799.40990443024020 Eh          212232.73320 eV
CPCM Dielectric    :         -0.01460363679374 Eh              -0.39739 eV

Virial components:
Potential Energy   :      -7368.61507704141059 Eh         -200510.20999 eV
Kinetic Energy     :       3678.38715135006623 Eh          100094.00307 eV
Virial Ratio       :          2.00321901253296

DFT components:
N(Alpha)           :      174.999976285838 electrons
N(Beta)            :      174.999976285838 electrons
N(Total)           :      349.999952571676 electrons
E(X)               :     -250.230349316046 Eh       
E(C)               :      -12.238851646710 Eh       
E(XC)              :     -262.469200962756 Eh       

CPCM Solvation Model Properties:
Surface-charge          :         -0.04910769065043
Corrected charge        :         -0.00000000000000
Outlying charge corr.   :          0.00005498030384 Eh               0.00150 eV
Free-energy (cav+disp)  :  This term is not implemented in the current solvation scheme

---------------
SCF CONVERGENCE
---------------

  Last Energy change         ...    2.3263e-08  Tolerance :   1.0000e-08
  Last MAX-Density change    ...    5.2531e-04  Tolerance :   1.0000e-07
  Last RMS-Density change    ...    1.1079e-05  Tolerance :   5.0000e-09
  Last DIIS Error            ...    1.3915e-03  Tolerance :   5.0000e-07
  Last Orbital Gradient      ...    2.0156e-06  Tolerance :   1.0000e-05
  Last Orbital Rotation      ...    3.5464e-06  Tolerance :   1.0000e-05


----------------
ORBITAL ENERGIES
----------------

  NO   OCC          E(Eh)            E(eV) 
   0   2.0000    -347.564209     -9457.7029 
   1   2.0000     -42.294967     -1150.9046 
   2   2.0000     -37.241149     -1013.3832 
   3   2.0000     -37.233196     -1013.1668 
   4   2.0000     -37.233195     -1013.1667 
   5   2.0000     -14.385664      -391.4538 
   6   2.0000     -14.385652      -391.4535 
   7   2.0000     -14.385636      -391.4530 
   8   2.0000     -14.385622      -391.4527 
   9   2.0000     -10.263650      -279.2881 
  10   2.0000     -10.263632      -279.2876 
  11   2.0000     -10.263628      -279.2875 
  12   2.0000     -10.263619      -279.2873 
  13   2.0000     -10.263609      -279.2870 
  14   2.0000     -10.263600      -279.2868 
  15   2.0000     -10.263595      -279.2866 
  16   2.0000     -10.263589      -279.2865 
  17   2.0000     -10.250322      -278.9254 
  18   2.0000     -10.250296      -278.9247 
  19   2.0000     -10.250291      -278.9246 
  20   2.0000     -10.250276      -278.9242 
  21   2.0000     -10.243658      -278.7441 
  22   2.0000     -10.243646      -278.7438 
  23   2.0000     -10.243645      -278.7438 
  24   2.0000     -10.243631      -278.7434 
  25   2.0000     -10.229880      -278.3692 
  26   2.0000     -10.229876      -278.3691 
  27   2.0000     -10.229872      -278.3690 
  28   2.0000     -10.229868      -278.3689 
  29   2.0000     -10.229797      -278.3669 
  30   2.0000     -10.229794      -278.3668 
  31   2.0000     -10.229792      -278.3668 
  32   2.0000     -10.229786      -278.3666 
  33   2.0000     -10.229333      -278.3543 
  34   2.0000     -10.229330      -278.3542 
  35   2.0000     -10.229329      -278.3542 
  36   2.0000     -10.229321      -278.3540 
  37   2.0000     -10.229164      -278.3497 
  38   2.0000     -10.229160      -278.3496 
  39   2.0000     -10.229158      -278.3495 
  40   2.0000     -10.229153      -278.3494 
  41   2.0000     -10.228658      -278.3359 
  42   2.0000     -10.228655      -278.3359 
  43   2.0000     -10.228650      -278.3357 
  44   2.0000     -10.228648      -278.3357 
  45   2.0000     -10.223948      -278.2078 
  46   2.0000     -10.223941      -278.2076 
  47   2.0000     -10.223937      -278.2075 
  48   2.0000     -10.223934      -278.2074 
  49   2.0000     -10.223146      -278.1859 
  50   2.0000     -10.223139      -278.1857 
  51   2.0000     -10.223135      -278.1857 
  52   2.0000     -10.223132      -278.1856 
  53   2.0000      -4.846943      -131.8920 
  54   2.0000      -3.229743       -87.8858 
  55   2.0000      -3.219171       -87.5981 
  56   2.0000      -3.219166       -87.5979 
  57   2.0000      -0.995119       -27.0786 
  58   2.0000      -0.985888       -26.8274 
  59   2.0000      -0.985885       -26.8273 
  60   2.0000      -0.975893       -26.5554 
  61   2.0000      -0.897015       -24.4090 
  62   2.0000      -0.893328       -24.3087 
  63   2.0000      -0.893321       -24.3085 
  64   2.0000      -0.891632       -24.2625 
  65   2.0000      -0.850869       -23.1533 
  66   2.0000      -0.832947       -22.6656 
  67   2.0000      -0.832941       -22.6655 
  68   2.0000      -0.814485       -22.1633 
  69   2.0000      -0.793706       -21.5979 
  70   2.0000      -0.793046       -21.5799 
  71   2.0000      -0.793039       -21.5797 
  72   2.0000      -0.787192       -21.4206 
  73   2.0000      -0.773229       -21.0406 
  74   2.0000      -0.773130       -21.0379 
  75   2.0000      -0.773124       -21.0378 
  76   2.0000      -0.773079       -21.0365 
  77   2.0000      -0.766728       -20.8637 
  78   2.0000      -0.759480       -20.6665 
  79   2.0000      -0.759478       -20.6664 
  80   2.0000      -0.742211       -20.1966 
  81   2.0000      -0.733588       -19.9620 
  82   2.0000      -0.682317       -18.5668 
  83   2.0000      -0.682316       -18.5668 
  84   2.0000      -0.641214       -17.4483 
  85   2.0000      -0.628499       -17.1023 
  86   2.0000      -0.628229       -17.0950 
  87   2.0000      -0.628222       -17.0948 
  88   2.0000      -0.627995       -17.0886 
  89   2.0000      -0.622069       -16.9274 
  90   2.0000      -0.622047       -16.9268 
  91   2.0000      -0.615419       -16.7464 
  92   2.0000      -0.614198       -16.7132 
  93   2.0000      -0.603828       -16.4310 
  94   2.0000      -0.582003       -15.8371 
  95   2.0000      -0.581997       -15.8370 
  96   2.0000      -0.572139       -15.5687 
  97   2.0000      -0.565996       -15.4015 
  98   2.0000      -0.565543       -15.3892 
  99   2.0000      -0.546275       -14.8649 
 100   2.0000      -0.546268       -14.8647 
 101   2.0000      -0.544018       -14.8035 
 102   2.0000      -0.539136       -14.6706 
 103   2.0000      -0.533573       -14.5193 
 104   2.0000      -0.533563       -14.5190 
 105   2.0000      -0.519344       -14.1321 
 106   2.0000      -0.506750       -13.7894 
 107   2.0000      -0.506739       -13.7891 
 108   2.0000      -0.484909       -13.1950 
 109   2.0000      -0.484698       -13.1893 
 110   2.0000      -0.484682       -13.1889 
 111   2.0000      -0.481254       -13.0956 
 112   2.0000      -0.477914       -13.0047 
 113   2.0000      -0.475952       -12.9513 
 114   2.0000      -0.474599       -12.9145 
 115   2.0000      -0.474593       -12.9143 
 116   2.0000      -0.473808       -12.8930 
 117   2.0000      -0.473040       -12.8721 
 118   2.0000      -0.466074       -12.6825 
 119   2.0000      -0.466069       -12.6824 
 120   2.0000      -0.461291       -12.5524 
 121   2.0000      -0.460980       -12.5439 
 122   2.0000      -0.442139       -12.0312 
 123   2.0000      -0.439657       -11.9637 
 124   2.0000      -0.436092       -11.8667 
 125   2.0000      -0.435988       -11.8638 
 126   2.0000      -0.435981       -11.8637 
 127   2.0000      -0.435813       -11.8591 
 128   2.0000      -0.435809       -11.8590 
 129   2.0000      -0.435400       -11.8478 
 130   2.0000      -0.434086       -11.8121 
 131   2.0000      -0.425134       -11.5685 
 132   2.0000      -0.424978       -11.5642 
 133   2.0000      -0.424971       -11.5641 
 134   2.0000      -0.416172       -11.3246 
 135   2.0000      -0.416168       -11.3245 
 136   2.0000      -0.411076       -11.1859 
 137   2.0000      -0.402650       -10.9567 
 138   2.0000      -0.397335       -10.8120 
 139   2.0000      -0.395051       -10.7499 
 140   2.0000      -0.393887       -10.7182 
 141   2.0000      -0.391802       -10.6615 
 142   2.0000      -0.391795       -10.6613 
 143   2.0000      -0.384472       -10.4620 
 144   2.0000      -0.381394       -10.3782 
 145   2.0000      -0.381387       -10.3781 
 146   2.0000      -0.369720       -10.0606 
 147   2.0000      -0.363339        -9.8870 
 148   2.0000      -0.361927        -9.8485 
 149   2.0000      -0.359266        -9.7761 
 150   2.0000      -0.359259        -9.7759 
 151   2.0000      -0.358404        -9.7527 
 152   2.0000      -0.358402        -9.7526 
 153   2.0000      -0.357672        -9.7328 
 154   2.0000      -0.349776        -9.5179 
 155   2.0000      -0.337102        -9.1730 
 156   2.0000      -0.337074        -9.1722 
 157   2.0000      -0.330861        -9.0032 
 158   2.0000      -0.295582        -8.0432 
 159   2.0000      -0.295535        -8.0419 
 160   2.0000      -0.277084        -7.5398 
 161   2.0000      -0.273540        -7.4434 
 162   2.0000      -0.272922        -7.4266 
 163   2.0000      -0.271791        -7.3958 
 164   2.0000      -0.271774        -7.3953 
 165   2.0000      -0.269750        -7.3403 
 166   2.0000      -0.267799        -7.2872 
 167   2.0000      -0.267768        -7.2863 
 168   2.0000      -0.267377        -7.2757 
 169   2.0000      -0.261962        -7.1283 
 170   2.0000      -0.261947        -7.1279 
 171   2.0000      -0.260322        -7.0837 
 172   2.0000      -0.257556        -7.0085 
 173   2.0000      -0.210105        -5.7172 
 174   2.0000      -0.205217        -5.5842 
 175   0.0000      -0.090824        -2.4714 
 176   0.0000      -0.090815        -2.4712 
 177   0.0000      -0.029355        -0.7988 
 178   0.0000      -0.014334        -0.3900 
 179   0.0000      -0.013128        -0.3572 
 180   0.0000      -0.013115        -0.3569 
 181   0.0000      -0.012546        -0.3414 
 182   0.0000      -0.011327        -0.3082 
 183   0.0000      -0.011288        -0.3072 
 184   0.0000      -0.010050        -0.2735 
 185   0.0000      -0.010036        -0.2731 
*Only the first 10 virtual orbitals were printed.

                    ********************************
                    * MULLIKEN POPULATION ANALYSIS *
                    ********************************

-----------------------
MULLIKEN ATOMIC CHARGES
-----------------------
   0 N :   -0.176232
   1 H :    0.157743
   2 C :   -0.241258
   3 C :   -0.241462
   4 N :   -0.177288
   5 C :   -0.241200
   6 H :    0.157768
   7 C :    0.187294
   8 N :   -0.177272
   9 C :   -0.241374
  10 C :   -0.005024
  11 C :    0.187251
  12 N :   -0.176326
  13 C :   -0.241066
  14 C :    0.186325
  15 C :    0.187476
  16 C :    0.186698
  17 C :    0.187062
  18 C :   -0.241225
  19 C :   -0.002735
  20 C :   -0.005972
  21 C :   -0.241454
  22 C :    0.187972
  23 C :   -0.241067
  24 C :   -0.006203
  25 C :    0.187555
  26 H :    0.157684
  27 H :    0.157784
  28 H :    0.157670
  29 H :    0.157682
  30 H :    0.157688
  31 H :    0.157651
  32 Zn:    0.239004
  33 C :    0.036151
  34 C :   -0.189480
  35 C :   -0.159316
  36 C :   -0.107036
  37 C :   -0.159176
  38 C :   -0.189991
  39 H :    0.137930
  40 H :    0.135149
  41 H :    0.137260
  42 H :    0.135263
  43 H :    0.137908
  44 C :    0.037355
  45 C :   -0.191080
  46 C :   -0.158474
  47 C :   -0.107369
  48 C :   -0.158539
  49 C :   -0.191492
  50 H :    0.137880
  51 H :    0.135174
  52 H :    0.137255
  53 H :    0.135266
  54 H :    0.137830
  55 C :    0.034999
  56 C :   -0.188582
  57 C :   -0.159927
  58 C :   -0.106422
  59 C :   -0.160229
  60 C :   -0.188028
  61 H :    0.137876
  62 H :    0.135126
  63 H :    0.137246
  64 H :    0.135152
  65 H :    0.137850
  66 C :    0.035176
  67 C :   -0.188524
  68 C :   -0.160059
  69 C :   -0.106496
  70 C :   -0.159934
  71 C :   -0.188253
  72 H :    0.137928
  73 H :    0.135179
  74 H :    0.137261
  75 H :    0.135161
  76 H :    0.137882
Sum of atomic charges:   -0.0000000

--------------------------------
MULLIKEN REDUCED ORBITAL CHARGES
--------------------------------
  0 N s       :     3.645822  s :     3.645822
      pz      :     1.351583  p :     3.462162
      px      :     1.108474
      py      :     1.002105
      dz2     :     0.004921  d :     0.064550
      dxz     :     0.006933
      dyz     :     0.014680
      dx2y2   :     0.018755
      dxy     :     0.019261
      f0      :     0.000648  f :     0.003698
      f+1     :     0.000320
      f-1     :     0.000437
      f+2     :     0.000117
      f-2     :     0.000602
      f+3     :     0.000639
      f-3     :     0.000935

  1 H s       :     0.819477  s :     0.819477
      pz      :     0.004839  p :     0.022780
      px      :     0.008677
      py      :     0.009263

  2 C s       :     3.274770  s :     3.274770
      pz      :     0.987879  p :     2.870647
      px      :     0.932981
      py      :     0.949787
      dz2     :     0.005815  d :     0.088207
      dxz     :     0.009771
      dyz     :     0.019519
      dx2y2   :     0.019999
      dxy     :     0.033104
      f0      :     0.001430  f :     0.007634
      f+1     :     0.000771
      f-1     :     0.000622
      f+2     :     0.000924
      f-2     :     0.000412
      f+3     :     0.002272
      f-3     :     0.001202

  3 C s       :     3.274868  s :     3.274868
      pz      :     0.986865  p :     2.870762
      px      :     0.951452
      py      :     0.932445
      dz2     :     0.005400  d :     0.088198
      dxz     :     0.020059
      dyz     :     0.009640
      dx2y2   :     0.019950
      dxy     :     0.033149
      f0      :     0.001471  f :     0.007634
      f+1     :     0.000535
      f-1     :     0.000787
      f+2     :     0.000969
      f-2     :     0.000401
      f+3     :     0.001183
      f-3     :     0.002288

  4 N s       :     3.646574  s :     3.646574
      pz      :     1.352055  p :     3.462458
      px      :     0.999142
      py      :     1.111261
      dz2     :     0.004787  d :     0.064558
      dxz     :     0.014876
      dyz     :     0.006829
      dx2y2   :     0.018731
      dxy     :     0.019335
      f0      :     0.000651  f :     0.003698
      f+1     :     0.000427
      f-1     :     0.000326
      f+2     :     0.000113
      f-2     :     0.000598
      f+3     :     0.000942
      f-3     :     0.000640

  5 C s       :     3.274539  s :     3.274539
      pz      :     0.984182  p :     2.870826
      px      :     0.956587
      py      :     0.930057
      dz2     :     0.005668  d :     0.088201
      dxz     :     0.017966
      dyz     :     0.011445
      dx2y2   :     0.021015
      dxy     :     0.032107
      f0      :     0.001459  f :     0.007634
      f+1     :     0.000572
      f-1     :     0.000768
      f+2     :     0.001233
      f-2     :     0.000130
      f+3     :     0.001322
      f-3     :     0.002151

  6 H s       :     0.819445  s :     0.819445
      pz      :     0.004870  p :     0.022786
      px      :     0.006975
      py      :     0.010941

  7 C s       :     3.203480  s :     3.203480
      pz      :     0.933088  p :     2.421868
      px      :     0.816275
      py      :     0.672505
      dz2     :     0.005132  d :     0.172875
      dxz     :     0.030669
      dyz     :     0.037488
      dx2y2   :     0.056062
      dxy     :     0.043523
      f0      :     0.002087  f :     0.014482
      f+1     :     0.000925
      f-1     :     0.001111
      f+2     :     0.000697
      f-2     :     0.002271
      f+3     :     0.003603
      f-3     :     0.003787

  8 N s       :     3.646551  s :     3.646551
      pz      :     1.352166  p :     3.462466
      px      :     0.999104
      py      :     1.111197
      dz2     :     0.004784  d :     0.064557
      dxz     :     0.014881
      dyz     :     0.006829
      dx2y2   :     0.018728
      dxy     :     0.019335
      f0      :     0.000651  f :     0.003698
      f+1     :     0.000427
      f-1     :     0.000326
      f+2     :     0.000113
      f-2     :     0.000598
      f+3     :     0.000942
      f-3     :     0.000640

  9 C s       :     3.274884  s :     3.274884
      pz      :     0.987494  p :     2.870623
      px      :     0.955984
      py      :     0.927145
      dz2     :     0.005594  d :     0.088233
      dxz     :     0.017981
      dyz     :     0.011508
      dx2y2   :     0.021057
      dxy     :     0.032094
      f0      :     0.001460  f :     0.007634
      f+1     :     0.000574
      f-1     :     0.000766
      f+2     :     0.001231
      f-2     :     0.000130
      f+3     :     0.001321
      f-3     :     0.002152

 10 C s       :     3.408739  s :     3.408739
      pz      :     0.968771  p :     2.457259
      px      :     0.727605
      py      :     0.760884
      dz2     :     0.003735  d :     0.129521
      dxz     :     0.023335
      dyz     :     0.024779
      dx2y2   :     0.032586
      dxy     :     0.045085
      f0      :     0.001517  f :     0.009505
      f+1     :     0.000752
      f-1     :     0.000778
      f+2     :     0.000837
      f-2     :     0.001129
      f+3     :     0.002638
      f-3     :     0.001854

 11 C s       :     3.203775  s :     3.203775
      pz      :     0.932262  p :     2.421609
      px      :     0.817495
      py      :     0.671852
      dz2     :     0.005205  d :     0.172881
      dxz     :     0.029166
      dyz     :     0.038949
      dx2y2   :     0.053199
      dxy     :     0.046363
      f0      :     0.002086  f :     0.014483
      f+1     :     0.000857
      f-1     :     0.001181
      f+2     :     0.001129
      f-2     :     0.001848
      f+3     :     0.002465
      f-3     :     0.004916

 12 N s       :     3.645880  s :     3.645880
      pz      :     1.351117  p :     3.462195
      px      :     1.108475
      py      :     1.002603
      dz2     :     0.004959  d :     0.064553
      dxz     :     0.006939
      dyz     :     0.014638
      dx2y2   :     0.018761
      dxy     :     0.019256
      f0      :     0.000646  f :     0.003698
      f+1     :     0.000321
      f-1     :     0.000439
      f+2     :     0.000118
      f-2     :     0.000602
      f+3     :     0.000639
      f-3     :     0.000933

[...]
  0-1A  ->  1-1A    2.332468   18812.6   531.6   0.004529197   0.00058  -0.02285  -0.00768   0.00107
  0-1A  ->  2-1A    2.332546   18813.3   531.5   0.004478168   0.00058  -0.00749   0.02270  -0.00210
  0-1A  ->  3-1A    3.089699   24920.1   401.3   1.741191386   0.29655   0.29095   0.45778  -0.04832
  0-1A  ->  4-1A    3.089848   24921.3   401.3   1.739692331   0.29631  -0.46009   0.29020  -0.02028
  0-1A  ->  5-1A    3.460460   27910.5   358.3   0.000010989   0.00000   0.00104   0.00100  -0.00011
  0-1A  ->  6-1A    3.460600   27911.6   358.3   0.000005577   0.00000   0.00080   0.00065  -0.00007
  0-1A  ->  7-1A    3.739398   30160.3   331.6   0.000015741   0.00000   0.00023  -0.00026  -0.00177
  0-1A  ->  8-1A    3.780030   30488.0   328.0   0.000000212   0.00000   0.00009   0.00019  -0.00001
  0-1A  ->  9-1A    3.814233   30763.9   325.1   0.041722147   0.00877   0.08695  -0.03476   0.00194
  0-1A  -> 10-1A    3.814432   30765.5   325.0   0.041617206   0.00875   0.03502   0.08629  -0.00881
  0-1A  -> 11-1A    3.914538   31572.9   316.7   0.000000738   0.00000   0.00014  -0.00037   0.00002
  0-1A  -> 12-1A    3.983164   32126.4   311.3   0.000000123   0.00000   0.00004   0.00016  -0.00001
  0-1A  -> 13-1A    4.094018   33020.5   302.8   0.000172970   0.00004   0.00609  -0.00140  -0.00016
  0-1A  -> 14-1A    4.094138   33021.5   302.8   0.000227449   0.00005  -0.00305   0.00646  -0.00059
  0-1A  -> 15-1A    4.094569   33024.9   302.8   0.000322571   0.00007  -0.00563  -0.00637   0.00069
  0-1A  -> 16-1A    4.095837   33035.2   302.7   0.000013834   0.00000   0.00084   0.00154  -0.00017
  0-1A  -> 17-1A    4.131737   33324.7   300.1   0.000001431   0.00000  -0.00044  -0.00030  -0.00020
  0-1A  -> 18-1A    4.165907   33600.3   297.6   0.001742819   0.00040   0.00099  -0.00240  -0.01984
  0-1A  -> 19-1A    4.195045   33835.3   295.5   0.000003799   0.00000  -0.00037   0.00067  -0.00054
  0-1A  -> 20-1A    4.225964   34084.7   293.4   0.001723689   0.00040  -0.01179  -0.01613   0.00149
  0-1A  -> 21-1A    4.226328   34087.6   293.4   0.001440683   0.00034   0.01505  -0.01030   0.00176
  0-1A  -> 22-1A    4.261609   34372.2   290.9   0.000004922   0.00000  -0.00069  -0.00064   0.00053
  0-1A  -> 23-1A    4.270589   34444.6   290.3   0.003083212   0.00073  -0.00613   0.00118  -0.02621
  0-1A  -> 24-1A    4.279443   34516.0   289.7   0.062726617   0.01480   0.11093   0.04940  -0.00720
  0-1A  -> 25-1A    4.279624   34517.5   289.7   0.062536107   0.01475  -0.04928   0.11067  -0.00877
  0-1A  -> 26-1A    4.297617   34662.6   288.5   0.000001663   0.00000  -0.00003  -0.00060   0.00017
  0-1A  -> 27-1A    4.327913   34907.0   286.5   0.155876710   0.03719   0.02303   0.19057  -0.01840
  0-1A  -> 28-1A    4.328047   34908.1   286.5   0.156325531   0.03730   0.19163  -0.02394  -0.00127
  0-1A  -> 29-1A    4.345508   35048.9   285.3   0.000010819   0.00000  -0.00142  -0.00074   0.00016
  0-1A  -> 30-1A    4.358134   35150.7   284.5   0.000005872   0.00000  -0.00065  -0.00097  -0.00020

------------------------------------------------------------------------------------------
                     CD SPECTRUM VIA TRANSITION ELECTRIC DIPOLE MOMENTS    
------------------------------------------------------------------------------------------
     Transition      Energy     Energy  Wavelength    R        MX        MY        MZ   
                      (eV)      (cm-1)    (nm)   (1e40*cgs)   (au)      (au)      (au)  
------------------------------------------------------------------------------------------
  0-1A  ->  1-1A    2.332468   18812.6   531.6   -1.40528   0.01003   0.00312  -0.00008
  0-1A  ->  2-1A    2.332546   18813.3   531.5   -1.39026   0.00346  -0.00981   0.00091
  0-1A  ->  3-1A    3.089699   24920.1   401.3  -34.76165  -0.00926  -0.01222   0.00112
  0-1A  ->  4-1A    3.089848   24921.3   401.3  -36.13847   0.01369  -0.00813   0.00073
  0-1A  ->  5-1A    3.460460   27910.5   358.3   -0.81753  -0.03718  -0.17847   0.01666
  0-1A  ->  6-1A    3.460600   27911.6   358.3   -0.44144  -0.17924   0.03712  -0.00145
  0-1A  ->  7-1A    3.739398   30160.3   331.6   -7.11712   0.01973   0.11394   1.19919
  0-1A  ->  8-1A    3.780030   30488.0   328.0    0.00022   0.00007   0.00067   0.00488
  0-1A  ->  9-1A    3.814233   30763.9   325.1   -0.45076  -0.00159  -0.00013   0.00021
  0-1A  -> 10-1A    3.814432   30765.5   325.0   -0.32423  -0.00126  -0.00065  -0.00047
  0-1A  -> 11-1A    3.914538   31572.9   316.7    0.00027   0.00012  -0.00017   0.00004
  0-1A  -> 12-1A    3.983164   32126.4   311.3   -0.00005  -0.00001  -0.00010   0.00004
  0-1A  -> 13-1A    4.094018   33020.5   302.8   -1.20892  -0.06019   0.01276   0.00127
  0-1A  -> 14-1A    4.094138   33021.5   302.8   -1.43713   0.02495  -0.05843   0.00637
  0-1A  -> 15-1A    4.094569   33024.9   302.8   -1.80742   0.04431   0.05028  -0.00671
  0-1A  -> 16-1A    4.095837   33035.2   302.7   -0.03784  -0.00376  -0.00573   0.00030
  0-1A  -> 17-1A    4.131737   33324.7   300.1   -0.00103   0.00035   0.00053   0.00009
  0-1A  -> 18-1A    4.165907   33600.3   297.6   17.60518  -0.00253  -0.02779  -0.27876
  0-1A  -> 19-1A    4.195045   33835.3   295.5    0.01373  -0.00206   0.00294  -0.00309
  0-1A  -> 20-1A    4.225964   34084.7   293.4   11.72988  -0.11022  -0.15409   0.01723
  0-1A  -> 21-1A    4.226328   34087.6   293.4   10.67845   0.15445  -0.10989   0.00466
  0-1A  -> 22-1A    4.261609   34372.2   290.9   -0.00590  -0.00075   0.00073  -0.00381
  0-1A  -> 23-1A    4.270589   34444.6   290.3  -22.65118   0.01108   0.02501   0.28407
  0-1A  -> 24-1A    4.279443   34516.0   289.7   -8.88036  -0.02217  -0.00894   0.01155
  0-1A  -> 25-1A    4.279624   34517.5   289.7   -8.57579   0.00913  -0.02289  -0.01149
  0-1A  -> 26-1A    4.297617   34662.6   288.5    0.00007   0.00068  -0.00099  -0.00337
  0-1A  -> 27-1A    4.327913   34907.0   286.5   43.41194   0.00744   0.07476  -0.00765
  0-1A  -> 28-1A    4.328047   34908.1   286.5   43.50209   0.07476  -0.01094  -0.00201
  0-1A  -> 29-1A    4.345508   35048.9   285.3   -0.00209   0.00038   0.00020  -0.00009
  0-1A  -> 30-1A    4.358134   35150.7   284.5   -0.00090  -0.00027   0.00050  -0.00000

------------------------------------------------------------------------------------------
                     CD SPECTRUM VIA TRANSITION VELOCITY DIPOLE MOMENTS    
------------------------------------------------------------------------------------------
     Transition      Energy     Energy  Wavelength    R        MX        MY        MZ   
                      (eV)      (cm-1)    (nm)   (1e40*cgs)   (au)      (au)      (au)  
------------------------------------------------------------------------------------------
  0-1A  ->  1-1A    2.332468   18812.6   531.6   -1.39260   0.01003   0.00312  -0.00008
  0-1A  ->  2-1A    2.332546   18813.3   531.5   -1.37779   0.00346  -0.00981   0.00091
  0-1A  ->  3-1A    3.089699   24920.1   401.3  -34.64596  -0.00926  -0.01222   0.00112
  0-1A  ->  4-1A    3.089848   24921.3   401.3  -36.01820   0.01369  -0.00813   0.00073
  0-1A  ->  5-1A    3.460460   27910.5   358.3   -0.81299  -0.03718  -0.17847   0.01666
  0-1A  ->  6-1A    3.460600   27911.6   358.3   -0.44034  -0.17924   0.03712  -0.00145
  0-1A  ->  7-1A    3.739398   30160.3   331.6   -7.35887   0.01973   0.11394   1.19919
  0-1A  ->  8-1A    3.780030   30488.0   328.0    0.00020   0.00007   0.00067   0.00488
  0-1A  ->  9-1A    3.814233   30763.9   325.1   -0.44865  -0.00159  -0.00013   0.00021
  0-1A  -> 10-1A    3.814432   30765.5   325.0   -0.32270  -0.00126  -0.00065  -0.00047
  0-1A  -> 11-1A    3.914538   31572.9   316.7    0.00027   0.00012  -0.00017   0.00004
  0-1A  -> 12-1A    3.983164   32126.4   311.3   -0.00005  -0.00001  -0.00010   0.00004
  0-1A  -> 13-1A    4.094018   33020.5   302.8   -1.20460  -0.06019   0.01276   0.00127
  0-1A  -> 14-1A    4.094138   33021.5   302.8   -1.43233   0.02495  -0.05843   0.00637
  0-1A  -> 15-1A    4.094569   33024.9   302.8   -1.80036   0.04431   0.05028  -0.00671
  0-1A  -> 16-1A    4.095837   33035.2   302.7   -0.03781  -0.00376  -0.00573   0.00030
  0-1A  -> 17-1A    4.131737   33324.7   300.1   -0.00103   0.00035   0.00053   0.00009
  0-1A  -> 18-1A    4.165907   33600.3   297.6   17.22597  -0.00253  -0.02779  -0.27876
  0-1A  -> 19-1A    4.195045   33835.3   295.5    0.01346  -0.00206   0.00294  -0.00309
  0-1A  -> 20-1A    4.225964   34084.7   293.4   11.56978  -0.11022  -0.15409   0.01723
  0-1A  -> 21-1A    4.226328   34087.6   293.4   10.51558   0.15445  -0.10989   0.00466
  0-1A  -> 22-1A    4.261609   34372.2   290.9   -0.00590  -0.00075   0.00073  -0.00381
  0-1A  -> 23-1A    4.270589   34444.6   290.3  -22.47995   0.01108   0.02501   0.28407
  0-1A  -> 24-1A    4.279443   34516.0   289.7   -8.94781  -0.02217  -0.00894   0.01155
  0-1A  -> 25-1A    4.279624   34517.5   289.7   -8.64044   0.00913  -0.02289  -0.01149
  0-1A  -> 26-1A    4.297617   34662.6   288.5    0.00003   0.00068  -0.00099  -0.00337
  0-1A  -> 27-1A    4.327913   34907.0   286.5   43.15665   0.00744   0.07476  -0.00765
  0-1A  -> 28-1A    4.328047   34908.1   286.5   43.24730   0.07476  -0.01094  -0.00201
  0-1A  -> 29-1A    4.345508   35048.9   285.3   -0.00208   0.00038   0.00020  -0.00009
  0-1A  -> 30-1A    4.358134   35150.7   284.5   -0.00090  -0.00027   0.00050  -0.00000

Total run time:    22450.180 sec

           *** ORCA-CIS/TD-DFT FINISHED WITHOUT ERROR ***
-----------------------
CIS/TD-DFT TOTAL ENERGY
-----------------------

    E(SCF)  =  -3690.227925691 Eh
    DE(CIS) =      0.085716616 Eh (Root  1)
    ----------------------------- ---------
    E(tot)  =  -3690.142209075 Eh


Maximum memory used throughout the entire CIS-calculation: 2475.2 MB
=> NOW LEAVING ORCA_CIS

-------------------------   --------------------
FINAL SINGLE POINT ENERGY     -3690.142209074954
-------------------------   --------------------



           ************************************************************
           *        Program running with 8 parallel MPI-processes     *
           *              working on a common directory               *
           ************************************************************

------------------------------------------------------------------------------
                              ORCA PROPERTY CALCULATIONS
------------------------------------------------------------------------------

GBWName                                 ... tddft.gbw
Number of atoms                         ...     77
Number of basis functions               ...   1704
Max core memory                         ...   3000 MB

Electric properties:
Dipole moment                           ... YES
Quadrupole moment                       ...  NO
Static polarizability (Dipole/Dipole)   ...  NO
Static polarizability (Dipole/Quad.)    ...  NO
Static polarizability (Quad./Quad.)     ...  NO
Static polarizability (Velocity)        ...  NO
Static hyperpolarizability              ...  NO

Atomic electric properties:
Dipole moment                           ...  NO
Quadrupole moment                       ...  NO
Static polarizability                   ...  NO

Choice of electric origin               ... Center of mass
Position of electric origin             ...    -0.159900     5.089041     6.548333

General magnetic properties:
Magnetizability                         ...  NO

EPR properties:
g-Tensor (aka g-matrix)                 ...  NO
Zero-Field splitting spin-orbit         ...  NO
Zero-field splitting spin-spin          ...  NO
Hyperfine couplings                     ...  NO (   0 nuclei)
Quadrupole couplings                    ...  NO (   0 nuclei)
Contact density                         ...  NO (   0 nuclei)

NMR properties:
Chemical shifts                         ...  NO (   0 nuclei)
Spin-rotation constants                 ...  NO (   0 nuclei)
Spin-spin couplings                     ...  NO (   0 nuclei,    0 pairs)

Choice of magnetic origin               ... GIAO
Position of magnetic origin             ...     0.000000     0.000000     0.000000

Properties with geometric perturbations:
SCF Hessian                             ...  NO
IR spectrum                             ...  NO
VCD spectrum                            ...  NO
X-ray spectroscopy properties:
SCF XES/XAS/RIXS spectra                ...  NO

SCF SOC stabilization energy            ...  NO
Diagonal Born-Oppenheimer correction    ...  NO

-------------
DIPOLE MOMENT
-------------

Method             : SCF
Type of density    : Electron Density
Multiplicity       :   1
Irrep              :   0
Energy             : -3690.2279256913443533 Eh
Basis              : AO
                                X                 Y                 Z
Electronic contribution:     -0.008650609       0.002416964       0.018517666
Nuclear contribution   :      0.009078313      -0.003119452      -0.019187423
                        -----------------------------------------
Total Dipole Moment    :      0.000427705      -0.000702488      -0.000669757
                        -----------------------------------------
Magnitude (a.u.)       :      0.001060658
Magnitude (Debye)      :      0.002695977



--------------------
Rotational spectrum 
--------------------
 
Rotational constants in cm-1:             0.001946             0.001946             0.001013 
Rotational constants in MHz :            58.342005            58.333325            30.369733 

Dipole components along the rotational axes: 
x,y,z [a.u.] :     0.000456    -0.000624    -0.000727 
x,y,z [Debye]:     0.001158    -0.001585    -0.001848 

 

Dipole moment calculation done in   0.2 sec 

Maximum memory used throughout the entire PROP-calculation: 234.8 MB

--------------------------------
SUGGESTED CITATIONS FOR THIS RUN
--------------------------------

Below you find a list of papers that are relevant to this ORCA run
We neither can nor want to force you to cite these papers, but we appreciate if you do
You receive ORCA, which is the product of decades of hard work by many enthusiastic individuals, for free
The only thing we kindly ask in return is that you cite our papers,
We deeply appreciate it, if you show your appreciation for ORCA by not just citing the generic ORCA reference.

Please note that relegating all ORCA citations to the supporting information does *not* help us.
SI sections are not indexed - citations you put there will not count into any citation statistics
But we need these citations in order to attract the funding resources that allow us to do what we are doing

Therefore, if you are a happy ORCA user, please consider citing a few of the papers listed below in the main body of your paper

In addition to the list printed below, the program has created the file tddft.bibtex that contains the list in bibtex format
You can import this file easily into all common literature databanks and citation aid programs

It goes without saying that in many instances, there are alternative algorithms to achieve similar
results as the ones you have gotten from ORCA. It is, of course, also the case that in some instances
ORCA just re-implements algorithms worked out by others. We are fully aware of that and we are also
fully appreciative of our colleagues work. Hence this citation list should not be read as indicating
that the listed papers, which are focused on our own work, are the only ones worth citing. It simply
meant to make it easier for users to cite ORCA specific papers. It is not a substitute for doing your
own literature research and citing the relevant literature in a scientifically appropriate manner.

List of essential papers. We consider these as the minimum necessary citations

  1. Neese, F.
     Software update: the ORCA program system, version 6.0
     WIRES Comput. Molec. Sci. 2025 15(1), e70019
     doi.org/10.1002/wcms.70019

List of papers to cite with high priority. The work reported in these papers was absolutely
necessary for this run to complete.
Our perspective: the developers of density functionals and basis sets usually get cited in chemistry papers
Good! But without the algorithms to do something with them, the functionals or basis sets would not do anything.
Hence, in our opinion, the algorithm design and method developments papers are equally worthy of getting cited

  1. Neese, F.; Olbrich, G.
     Efficient use of the resolution of the identity approximation in time-dependent density functional calculations with hybrid density functionals
     Chem. Phys. Lett. 2002 362 , 170-178
     doi.org/10.1016/s0009-2614(02)01053-9
  2. Neese, F.
     An improvement of the resolution of the identity approximation for the formation of the Coulomb matrix
     J. Comp. Chem. 2003 24(14), 1740-1747
     doi.org/10.1002/jcc.10318
  3. Neese, F.; Wennmohs, F.; Hansen, A.; Becker, U.
     Efficient, approximate and parallel Hartree-Fock and hybrid DFT calculations. A 'chain-of-spheres' algorithm for the Hartree-Fock exchange
     Chem. Phys. 2009 356(1-3), 98-109
     doi.org/10.1016/j.chemphys.2008.10.036
  4. Garcia-Rates, M.; Neese, F.
     Effect of the Solute Cavity on the Solvation Energy and its Derivatives within the Framework of the Gaussian Charge Scheme
     J. Comput. Chem. 2020 41 , 922-939
     doi.org/10.1002/jcc.26139
  5. Helmich-Paris, B.; de Souza, B.; Neese, F.; Izsák, R.
     An improved chain of spheres for exchange algorithm
     J. Chem. Phys. 2021 155(10), 104109
     doi.org/10.1063/5.0058766
  6. Neese, F.
     The SHARK Integral Generation and Digestion System
     J. Comp. Chem. 2022 44(3), 381
     doi.org/10.1002/jcc.26942

List of suggested additional citations. These are papers that are important in the 'surrounding' of 
of this run, or papers that preceded the highly important papers. If you like your results we are grateful for a citation.

  1. Izsak, R.; Neese, F.
     An overlap fitted chain of spheres exchange method
     J. Chem. Phys. 2011 135 , 144105
     doi.org/10.1063/1.3646921
  2. Izsak, R.; Hansen, A.; Neese, F.
     The resolution of identity and chain of spheres approximations for the LPNO-CCSD singles Fock term
     Molec. Phys. 2012 110 , 2413-2417
     doi.org/10.1080/00268976.2012.687466
  3. Neese, F.
     The ORCA program system
     WIRES Comput. Molec. Sci. 2012 2(1), 73-78
     doi.org/10.1002/wcms.81
  4. Izsak, R.; Neese, F.; Klopper, W.
     Robust fitting techniques in the chain of spheres approximation to the Fock exchange: The role of the complementary space
     J. Chem. Phys. 2013 139 , 
     doi.org/10.1063/1.4819264
  5. Neese, F.
     Software update: the ORCA program system, version 4.0
     WIRES Comput. Molec. Sci. 2018 8(1), 1-6
     doi.org/10.1002/wcms.1327
  6. Neese, F.; Wennmohs, F.; Becker, U.; Riplinger, C.
     The ORCA quantum chemistry program package
     J. Chem. Phys. 2020 152(22), 224108
     doi.org/10.1063/5.0004608
  7. Neese, F.
     Software update: The ORCA program system—Version 5.0
     WIRES Comput. Molec. Sci. 2022 12(1), e1606
     doi.org/10.1002/wcms.1606

List of optional additional citations

  1. Neese, F.
     Approximate second-order SCF convergence for spin unrestricted wavefunctions
     Chem. Phys. Lett. 2000 325(1-3), 93-98
     doi.org/10.1016/s0009-2614(00)00662-x

Timings for individual modules:

Sum of individual times          ...    26478.356 sec (= 441.306 min)
Startup calculation              ...       85.327 sec (=   1.422 min)   0.3 %
SCF iterations                   ...     3927.272 sec (=  65.455 min)  14.8 %
Property integrals               ...        9.455 sec (=   0.158 min)   0.0 %
Property calculations            ...        2.768 sec (=   0.046 min)   0.0 %
CIS module                       ...    22453.535 sec (= 374.226 min)  84.8 %
                             ****ORCA TERMINATED NORMALLY****
TOTAL RUN TIME: 0 days 7 hours 21 minutes 18 seconds 890 msec
